
Create O   file=TZP-O
xc
 GGA BP86
End
 input_parser input command:
 sh /amphome/rzc170/adfdevel_20180118/bin/input_parser.sh -i temporary_input.in -p adf
Keywords definitions OK.

 *******************************************************************************
 *                                                                             *
 *  -------------------------------------                                      *
 *   Amsterdam Density Functional  (ADF)                                       *
 *  -------------------------------------                                      *
 *                                               r                             *
 *                                                                             *
 *                                                                             *
 *                              =================                              *
 *                              |               |                              *
 *                              |     A D F     |                              *
 *                              |               |                              *
 *                              =================                              *
 *                                                                             *
 *                                                                             *
 *   Online information and documentation:  https://www.scm.com/support/       *
 *   E-mail:  support@scm.com   info@scm.com                                   *
 *                                                                             *
 *   Scientific publications using ADF results must be properly referenced     *
 *   See the User Manuals (or the web site) for recommended citations          *
 *   The terms and conditions of the End User License Agreement apply to       *
 *   the use of ADF, https://www.scm.com/license-terms/                        *
 *                                                                             *
 ************************  x86_64_linux_gnu / openmpi  *************************
 
 Licensed to: Prof. Lasse Jensen / Penn State University / University Park / PA  / USA
 SCM User ID: u8493
  
 ADF  RunTime: Dec01-2018 15:53:09  Nodes: 1  Procs: 1

 Temporary files are created in /scratch/kid_0.wNtA85

 Oxygen (TZP)



 ===========================
 A T T A C H E D   F I L E S
 ===========================
  
 CREATE - Data File:    TZP-O
                        Oxygen (TZP)



 ===============================
 M O D E L   P A R A M E T E R S
 ===============================
  
 DENSITY FUNCTIONAL POTENTIAL (scf)
    LDA:                               VWN                                      
    Gradient Corrections:              Becke88 Perdew86                        == Not Default ==

 SPIN  (restricted / unrestr.)
    Molecule:                          Restricted                               

 OTHER ASPECTS
    Relativistic Corrections:          ---                                      

    Nuclear Charge Density Model:      Point Charge Nuclei                      
    Core Treatment:                    Frozen Orbital(s)                        

    Hyperfine or Zeeman Interaction:   ---                                      



 =====================================
 S Y M M E T R Y ,   E L E C T R O N S
 =====================================
  
 Symmetry: ATOM

 Irreducible Representations, including subspecies
 -------------------------------------------------
 S
 P:x  P:y  P:z
 D:z2  D:x2-y2  D:xy  D:xz  D:yz
 F:z3  F:z  F:xyz  F:z2x  F:z2y  F:x  F:y


 Configuration of Valence Electrons
 ==================================

          Occupation Numbers
          -------------------------------------------------
 S        2*2
 P        4
 D        0
 F        0
          -------------------------------------------------

 Total:   8

 Net Charge: 0 (Nuclei minus Electrons)

 Preset values for MO occupations will be applied through SCF cycle no. 1000000
 Thereafter, the program will assign electrons to MOs that are spatially
 similar to the occupied MOs in a "reference" cycle ("KeepOrbitals").
 The reference cycle is always the PREVIOUS cycle: it will evolve with
 the SCF procedure.



 ================================
 (Slater-type)  F U N C T I O N S  ***  (Basis and Fit)  ***
 ================================
  

 Atom Type    1  (O)
 ==============

 Valence Basis Sets:   9
 -----------------------
   1 S    9.800000
   1 S    6.800000
   2 S    7.580000
   2 S    2.880000
   2 S    1.720000
   2 P    4.080000
   2 P    2.080000
   2 P    1.120000
   3 D    2.000000


 BAS: List of all Elementary Cartesian Basis Functions
 =====================================================

 The numbering in the list below (to the right of the function characteristics) is referred
 to in print-outs of MO eigenvectors and Mulliken populations in the BAS representation
 (as contrasted to the SFO representation).

 Notes:
 1. The functions are characterized by a polynomial prefactor (powers of x,y,z and r) and
    an exponential decay factor alpha.
 2. Since the basis sets are specific for an atom TYPE, the individual functions occur on
    all atoms of that type.
 3. The word 'Core' in the left margin signals that it is a Core Function (CF) : not a
    degree of freedom in the valence set, but only used to ensure orthogonalization of
    the other valence basis functions on the frozen Core Orbitals.


 (power of) X  Y  Z  R     Alpha  on Atom
            ==========     =====     ==========

 O                                    1
                                  ---------------------------------------------------------------------------
            0  0  0  0     9.800      1
            0  0  0  0     6.800      2
            0  0  0  1     7.580      3
            0  0  0  1     2.880      4
            0  0  0  1     1.720      5
            1  0  0  0     4.080      6
            0  1  0  0     4.080      7
            0  0  1  0     4.080      8
            1  0  0  0     2.080      9
            0  1  0  0     2.080     10
            0  0  1  0     2.080     11
            1  0  0  0     1.120     12
            0  1  0  0     1.120     13
            0  0  1  0     1.120     14
            2  0  0  0     2.000     15
            1  1  0  0     2.000     16
            1  0  1  0     2.000     17
            0  2  0  0     2.000     18
            0  1  1  0     2.000     19
            0  0  2  0     2.000     20

 Total number of charge fitting functions (nprimf)        84
 Total number of Cartesian basis functions (naos)         20
 Total number of Cartesian core functions  (ncos)          0



 BAS: List of all Elementary Cartesian Basis Functions
 =====================================================

 The numbering in the list below (to the right of the function characteristics) is referred
 to in print-outs of MO eigenvectors and Mulliken populations in the BAS representation
 (as contrasted to the SFO representation).

 Notes:
 1. The functions are characterized by a polynomial prefactor (powers of x,y,z and r) and
    an exponential decay factor alpha.
 2. Since the basis sets are specific for an atom TYPE, the individual functions occur on
    all atoms of that type.
 3. The word 'Core' in the left margin signals that it is a Core Function (CF) : not a
    degree of freedom in the valence set, but only used to ensure orthogonalization of
    the other valence basis functions on the frozen Core Orbitals.


 (power of) X  Y  Z  R     Alpha  on Atom
            ==========     =====     ==========

 O                                    1
                                  ---------------------------------------------------------------------------
            0  0  0  0     9.800      1
            0  0  0  0     6.800      2
            0  0  0  1     7.580      3
            0  0  0  1     2.880      4
            0  0  0  1     1.720      5
            1  0  0  0     4.080      6
            0  1  0  0     4.080      7
            0  0  1  0     4.080      8
            1  0  0  0     2.080      9
            0  1  0  0     2.080     10
            0  0  1  0     2.080     11
            1  0  0  0     1.120     12
            0  1  0  0     1.120     13
            0  0  1  0     1.120     14
            2  0  0  0     2.000     15
            1  1  0  0     2.000     16
            1  0  1  0     2.000     17
            0  2  0  0     2.000     18
            0  1  1  0     2.000     19
            0  0  2  0     2.000     20
1
 ***************************************************************************************************



                                              ***********************
                                              *  T E C H N I C A L  *
                                              ***********************
  



 =============================================================
 P A R A L L E L I Z A T I O N  and  V E C T O R I Z A T I O N
 =============================================================
  
 Nr of parallel processes:                                1
 Maximum vector length in NumInt loops:                 128

 IO buffersize (Mb):                                     64.000000



 =====================
 S C F   U P D A T E S
 =====================
  
 Max. nr. of cycles:                               300
 Convergence criterion:                              0.0000000100
   secondary criterion:                              0.0000000100

 Mix parameter (when DIIS does not apply):           0.2000000000
 Special mix parameter for the first cycle:          1.0000000000
 Mixed ADIIS+DIIS will be used
    Max number of expansion vectors:                10
    Pure ADIIS when Max([F,P]) is above              0.1000000000
    Pure DIIS when Max([F,P]) is below               0.0010000000
 Automatic ElectronSmearing (in case of problematic SCF convergence) disabled



 =================
 P R E C I S I O N  ***  (General: NumInt, NeglectFunctionTails, ...)  ***
 =================
  

 NumInt:           Target precision:                12.0000000000
 -------           Initial precision:               10.0000000000
                   Min. precision (optimization):   10.0000000000

 Neglect Functions:          Basis functions:        0.1000000000E-13
 ------------------          Fit functions:          0.1000000000E-13



 ===========================
 L I N E A R   S C A L I N G
 ===========================
  

 Cut-off radii density fit:                        0.1000000000E-97
 Overlap cut-off criterion AO matrix elements:     0.1000000000E-97
 Cut-offs for Coulomb potential and fitted density:0.1000000000E-97
 Cut-off criterion for Coulomb multipole terms:    0.1000000000E-97
 Progressive Convergence parameter:                 0.000000000    
1
 ***************************************************************************************************



                                            ***************************
                                            *  C O M P U T A T I O N  *
                                            ***************************
  

 Number of elements of the density matrix on this node (used, total):       210       210



 ===========================================
 Numerical Integration : Fuzzy Cells (Becke)
 ===========================================
  
 Becke grid quality: VERYGOOD       
  
 Lebedev angular grid order:             min:  13 max:  41
 Nr. of radial points:                   min:  68 max:  68

 Total nr. of points:         68
 Nr. of blocks:                1
 Block length:                68
 Nr. of dummy points:          0


 Test of Precision of the Numerical Integration Grid
 ===================================================

 Integral of the Total Core Density:                   0.00000000000000



 ========================
 Density Fitting (zlmFit)
 ========================
  
 ZlmFit Fit Quality: VERYGOOD       
  
 Max L-expansion:                        min:   0 max:   0
 Nr. of radial interpolation points:     min: 180 max: 180



 =====
 S C F  ***  ScaSCF  ***
 =====
  

 CYCLE    1
 SCF Error: norm([F,P])=      0.000000000000, max([F,P])=      0.000000000000
 orbitals (Q,E):
 ---------------
 S :1...5            ( 2.00   -31.9999)  ( 2.00    -7.9363)  ( 0.00    -3.4636)  ( 0.00     4.3191)
                     ( 0.00   110.5486)
 P :1...3            ( 4.00    -7.9991)  ( 0.00    -3.4855)  ( 0.00    -1.8903)
 D :1...1            ( 0.00    -3.3333)

 CYCLE    2
  SDIIS (wt  0.000):  1.0000 -0.0000
 A-DIIS (wt  1.000):  0.0000  1.0000
  DIIS coefficients:  0.0000  1.0000
 SCF Error: norm([F,P])=      8.763723861745, max([F,P])=      5.504047077709
 orbitals (Q,E):
 ---------------
 S :1...3            ( 2.00   -14.5449)  ( 2.00     0.0344)  ( 0.00     1.8263)
 P :1...2            ( 4.00     0.2469)  ( 0.00     1.2272)
 D :1...1            ( 0.00     1.5934)

 CYCLE    3
  SDIIS (wt  0.000):  0.2251  0.7749
 A-DIIS (wt  1.000):  0.3091  0.6909
  DIIS coefficients:  0.3091  0.6909
 SCF Error: norm([F,P])=      3.550503550263, max([F,P])=      2.507940932922
 orbitals (Q,E):
 ---------------
 S :1...3            ( 2.00   -19.8394)  ( 2.00    -1.5343)  ( 0.00     0.4013)
 P :1...2            ( 4.00    -0.9851)  ( 0.00     0.1214)
 D :1...1            ( 0.00     0.6528)

 CYCLE    4
  SDIIS (wt  0.000): -0.0464  0.1718  0.8747
 A-DIIS (wt  1.000):  0.0000  0.0000  1.0000
  DIIS coefficients:  0.0000  0.0000  1.0000
 SCF Error: norm([F,P])=      1.162816490108, max([F,P])=      0.589385445639
 orbitals (Q,E):
 ---------------
 S :1...3            ( 2.00   -18.0312)  ( 2.00    -0.5522)  ( 0.00     1.0481)
 P :1...2            ( 4.00    -0.0415)  ( 0.00     0.5491)
 D :1...1            ( 0.00     1.2464)

 CYCLE    5
  SDIIS (wt  0.000): -0.0158 -0.0743  0.5541  0.5359
 A-DIIS (wt  1.000):  0.0000  0.0000  0.6076  0.3924
  DIIS coefficients:  0.0000  0.0000  0.6076  0.3924
 SCF Error: norm([F,P])=      1.417344712015, max([F,P])=      0.798262747815
 orbitals (Q,E):
 ---------------
 S :1...3            ( 2.00   -18.8378)  ( 2.00    -0.8686)  ( 0.00     0.8073)
 P :1...2            ( 4.00    -0.3200)  ( 0.00     0.3673)
 D :1...1            ( 0.00     1.0667)

 CYCLE    6
  SDIIS (wt  0.307):  0.0042  0.0008  0.0388 -0.0307  0.9869
 A-DIIS (wt  0.693):  0.0000  0.0000  0.0000  0.0000  1.0000
  DIIS coefficients:  0.0013  0.0002  0.0119 -0.0094  0.9960
 SCF Error: norm([F,P])=      0.115741943836, max([F,P])=      0.069590667061
 orbitals (Q,E):
 ---------------
 S :1...3            ( 2.00   -18.9671)  ( 2.00    -0.9011)  ( 0.00     0.7792)
 P :1...2            ( 4.00    -0.3533)  ( 0.00     0.3477)
 D :1...1            ( 0.00     1.0532)

 CYCLE    7
  SDIIS (wt  0.598): -0.0003  0.0005 -0.0082  0.0150  0.1989  0.7941
 A-DIIS (wt  0.402):  0.0000  0.0000  0.0000  0.0000  0.3342  0.6658
  DIIS coefficients: -0.0002  0.0003 -0.0049  0.0089  0.2533  0.7425
 SCF Error: norm([F,P])=      0.069878773221, max([F,P])=      0.040828707423
 orbitals (Q,E):
 ---------------
 S :1...3            ( 2.00   -18.9164)  ( 2.00    -0.8826)  ( 0.00     0.7916)
 P :1...2            ( 4.00    -0.3354)  ( 0.00     0.3558)
 D :1...1            ( 0.00     1.0625)

 CYCLE    8
  SDIIS (wt  0.979): -0.0000  0.0001  0.0020 -0.0019 -0.0100  0.0019  1.0079
 A-DIIS (wt  0.021):  0.0000  0.0000  0.0000  0.0000  0.0000  0.0000  1.0000
  DIIS coefficients: -0.0000  0.0001  0.0020 -0.0019 -0.0098  0.0019  1.0077
 SCF Error: norm([F,P])=      0.005710534180, max([F,P])=      0.003038763842
 orbitals (Q,E):
 ---------------
 S :1...3            ( 2.00   -18.9198)  ( 2.00    -0.8843)  ( 0.00     0.7903)
 P :1...2            ( 4.00    -0.3371)  ( 0.00     0.3548)
 D :1...1            ( 0.00     1.0615)

 CYCLE    9
  SDIIS (wt  1.000):  0.0000 -0.0000 -0.0000  0.0000 -0.0002 -0.0019  0.0084  0.9937
  DIIS coefficients:  0.0000 -0.0000 -0.0000  0.0000 -0.0002 -0.0019  0.0084  0.9937
 SCF Error: norm([F,P])=      0.000160629234, max([F,P])=      0.000090819912
 orbitals (Q,E):
 ---------------
 S :1...3            ( 2.00   -18.9197)  ( 2.00    -0.8843)  ( 0.00     0.7903)
 P :1...2            ( 4.00    -0.3370)  ( 0.00     0.3549)
 D :1...1            ( 0.00     1.0615)

 CYCLE   10
  SDIIS (wt  1.000):  0.0000 -0.0000  0.0000  0.0000  0.0003 -0.0027  1.0024
  DIIS coefficients:  0.0000 -0.0000  0.0000  0.0000  0.0003 -0.0027  1.0024
 SCF Error: norm([F,P])=      0.000000381814, max([F,P])=      0.000000145768
 orbitals (Q,E):
 ---------------
 S :1...3            ( 2.00   -18.9197)  ( 2.00    -0.8843)  ( 0.00     0.7903)
 P :1...2            ( 4.00    -0.3370)  ( 0.00     0.3549)
 D :1...1            ( 0.00     1.0615)

 CYCLE   11
  SDIIS (wt  1.000):  0.0000  0.0001 -0.0071  1.0070
  DIIS coefficients:  0.0000  0.0001 -0.0071  1.0070
 SCF Error: norm([F,P])=      0.000000005920, max([F,P])=      0.000000003745
 orbitals (Q,E):
 ---------------
 S :1...3            ( 2.00   -18.9197)  ( 2.00    -0.8843)  ( 0.00     0.7903)
 P :1...2            ( 4.00    -0.3370)  ( 0.00     0.3549)
 D :1...1            ( 0.00     1.0615)

 SCF CONVERGED

 CYCLE   12
1
 ***************************************************************************************************



                                                *******************
                                                *  R E S U L T S  *
                                                *******************
  
 *** Setting up for NEW gradients in Focky
 *** Using FIT density in Focky

 Orbital Energies, per Irrep and Spin:
 ======================================
                        Occup              E (au)              E (eV)       Diff (eV) with prev. cycle
                        -----      --------------------        ------       --------------------------
 S
               1        2.000     -0.18919718912958E+02      -514.832               3.14E-09
               2        2.000     -0.88429092651563E+00       -24.063               2.24E-09
               3        0.000      0.79032594985475E+00        21.506
               4        0.000      0.13477860511148E+02       366.751
               5        0.000      0.12313587623547E+03      3350.698
 P
               1        4.000     -0.33702852341125E+00        -9.171               2.15E-09
               2        0.000      0.35486127816588E+00         9.656
               3        0.000      0.38373828087304E+01       104.420
 D
               1        0.000      0.10615105164383E+01        28.885


 Partially Occupied:
               1 P                -0.33702852341125E+00
  
 HOMO :        2 S                -0.88429092651563E+00
 LUMO :        2 P                 0.35486127816588E+00
  


 Orbital Energies, all Irreps
 ========================================

 Irrep        no.  (spin)   Occup              E (au)                E (eV)
 ---------------------------------------------------------------------------
 S             1             2.00       -0.18919718912958E+02      -514.8317
 S             2             2.00       -0.88429092651563E+00       -24.0628
 P             1             4.00       -0.33702852341125E+00        -9.1710
 P             2             0.00        0.35486127816588E+00         9.6563
 S             3             0.00        0.79032594985475E+00        21.5059
 D             1             0.00        0.10615105164383E+01        28.8852
 P             3             0.00        0.38373828087304E+01       104.4205
 S             4             0.00        0.13477860511148E+02       366.7512
 S             5             0.00        0.12313587623547E+03      3350.6977


 All Electron Calculation, thus no Orbital Energies of the Core Orbitals are calculated



 =======================================
 M U L L I K E N   P O P U L A T I O N S
 =======================================
  
 The survey below gives for each atom:
 a) the total charge (Z minus electrons)
 b) the net spin polarization (nr of electrons spin-A minus spin-B)
 c) for each spin the atomic electron valence density (integrated) per L-value.

 Atom              Charge    Spin density          S         P         D         F
 ----              ------    ------------       ------    ------    ------    ------
 1 O               0.0000                       4.0000    4.0000    0.0000    0.0000

 Populations of individual BAS functions
 ----------------------------------------
 1 O            0.6242  1.3624 -0.0210  1.1431  0.8913  0.2472  0.2472  0.2472  0.7523  0.7523
                0.7523  0.3338  0.3338  0.3338  0.0000  0.0000  0.0000  0.0000  0.0000  0.0000

 Gross Charges per Atom (Z minus electrons)
 ==========================================
             0.0000
 Net Total:  0.00000000



 =======================================================================
 Electrostatic potential at the Nuclei due to electrons and other nuclei
 =======================================================================
  
         Atom                  Potential
         ----                  ---------
     1)   O                  22.23535716


 ========================
 No memory problems found
 ========================

 Maximum number of active allocate calls:         361

 *******************************************************************************

                             A D F   E X I T
 NORMAL TERMINATION



 =================
 Timing Statistics
 =================
  
 Total Used :                     CPU=        0.96      System=        0.04     Elapsed=        1.64

 Calls  Section                     ( Mean, Percentage )
 ---------------------------------------------------------------------------------------------------
     3  ><      ................      0.00    0.00             0.00    9.09             0.00    0.32
     1  INIT    ................      0.07    7.47             0.04   81.82             0.74   45.01
     1  GEOMET  ................      0.03    3.32             0.00    0.00             0.03    2.06
     1  INPUTA  ................      0.01    0.83             0.00    0.00             0.01    0.40
     1  MAINSY  ................      0.02    1.66             0.00    0.00             0.02    0.93
     1  SYMFIT  ................      0.00    0.00             0.00    0.00             0.00    0.10
     1  CORORT  ................      0.00    0.41             0.00    0.00             0.00    0.09
     1  SYMORB  ................      0.00    0.00             0.00    0.00             0.00    0.08
     1  CLSMAT  ................      0.01    0.83             0.00    0.00             0.01    0.57
     1  ORTHON  ................      0.01    1.24             0.00    0.00             0.01    0.58
     1  GENPT   ................      0.02    2.49             0.00    0.00             0.03    1.60
     1  PTBAS   ................      0.01    0.83             0.00    0.00             0.01    0.35
    12  FOCKY   ................      0.05   66.80             0.00    9.09             0.05   39.38
    12  FOCKTR  ................      0.00    1.24             0.00    0.00             0.00    0.74
    12  SDIIS   ................      0.00    4.98             0.00    0.00             0.00    3.08
     1  COREPS  ................      0.04    3.73             0.00    0.00             0.03    2.09
     1  POPAN   ................      0.01    0.83             0.00    0.00             0.01    0.49
     1  DEBYE   ................      0.00    0.00             0.00    0.00             0.00    0.18
     1  EXIT PROCEDURE .........      0.03    3.32             0.00    0.00             0.03    1.94


 Currently Open Files (EXIT00)
 ====================

 Unit    Access Format  Status   Type       Ident (file)
 -------------------------------------------------------
   3      SEQ    FORM   TRANSP  NORMAL      LOGFILE
                                          ( logfile )


 Buffered I/O statistics
 =======================
 Memory available:                     67108864
 Number of records fitting in memory:     16131
 Input :   0.1% of                        17874  *4k bytes
 Output:  20.3% of                          783  *4k bytes
 Records from serial files evicted:           0
                    others evicted:           0
 Hash table lookups:      38061 with          0 conflicts (  0.00%)

 ***************************************************************************************************
 (LOGFILE)
 <Dec01-2018> <15:53:09>  ADF  RunTime: Dec01-2018 15:53:09  Nodes: 1  Procs: 1
 <Dec01-2018> <15:53:09>  Oxygen (TZP)
 <Dec01-2018> <15:53:09>  RunType   : CREATE
 <Dec01-2018> <15:53:09>  Net Charge: 0 (Nuclei minus Electrons)
 <Dec01-2018> <15:53:09>  Symmetry  : ATOM
  Coordinates
    Atom         X           Y           Z   (Angstrom)
    1.O         0.000000    0.000000    0.000000
 <Dec01-2018> <15:53:09>  >>>> CORORT
 <Dec01-2018> <15:53:09>  >>>> CLSMAT
 <Dec01-2018> <15:53:09>  >>>> ORTHON
 <Dec01-2018> <15:53:09>  >>>> GENPT
 <Dec01-2018> <15:53:09>  Block Length=  68
 <Dec01-2018> <15:53:09>  >>>> PTBAS
 <Dec01-2018> <15:53:09>  >>>> CYCLE
 <Dec01-2018> <15:53:10>              |Error|         MaxErr       Wt(A-DIIS)
 <Dec01-2018> <15:53:10>      1      0.00000000      0.00000000
 <Dec01-2018> <15:53:10>      2      8.76372386      5.50404708    100.0
 <Dec01-2018> <15:53:10>      3      3.55050355      2.50794093    100.0
 <Dec01-2018> <15:53:10>      4      1.16281649      0.58938545    100.0
 <Dec01-2018> <15:53:10>      5      1.41734471      0.79826275    100.0
 <Dec01-2018> <15:53:10>      6      0.11574194      0.06959067     69.3
 <Dec01-2018> <15:53:10>      7      0.06987877      0.04082871     40.2
 <Dec01-2018> <15:53:10>      8      0.00571053      0.00303876      2.1
 <Dec01-2018> <15:53:10>      9      0.00016063      0.00009082      0.0
 <Dec01-2018> <15:53:10>     10      0.00000038      0.00000015      0.0
 <Dec01-2018> <15:53:10>     11      0.00000001      0.00000000      0.0
 <Dec01-2018> <15:53:10>  SCF converged
 <Dec01-2018> <15:53:10>     12      0.00000000      0.00000000      0.0
 <Dec01-2018> <15:53:10>  >>>> POPAN
 <Dec01-2018> <15:53:10>  >>>> DEBYE
 <Dec01-2018> <15:53:10>  NORMAL TERMINATION
 <Dec01-2018> <15:53:10>  END

Create C   file=TZP-C
xc
 GGA BP86
End
 input_parser input command:
 sh /amphome/rzc170/adfdevel_20180118/bin/input_parser.sh -i temporary_input.in -p adf
Keywords definitions OK.

 *******************************************************************************
 *                                                                             *
 *  -------------------------------------                                      *
 *   Amsterdam Density Functional  (ADF)                                       *
 *  -------------------------------------                                      *
 *                                               r                             *
 *                                                                             *
 *                                                                             *
 *                              =================                              *
 *                              |               |                              *
 *                              |     A D F     |                              *
 *                              |               |                              *
 *                              =================                              *
 *                                                                             *
 *                                                                             *
 *   Online information and documentation:  https://www.scm.com/support/       *
 *   E-mail:  support@scm.com   info@scm.com                                   *
 *                                                                             *
 *   Scientific publications using ADF results must be properly referenced     *
 *   See the User Manuals (or the web site) for recommended citations          *
 *   The terms and conditions of the End User License Agreement apply to       *
 *   the use of ADF, https://www.scm.com/license-terms/                        *
 *                                                                             *
 ************************  x86_64_linux_gnu / openmpi  *************************
 
 Licensed to: Prof. Lasse Jensen / Penn State University / University Park / PA  / USA
 SCM User ID: u8493
  
 ADF  RunTime: Dec01-2018 15:53:11  Nodes: 1  Procs: 1

 Temporary files are created in /scratch/kid_0.jyEmFY

 Carbon (TZP)



 ===========================
 A T T A C H E D   F I L E S
 ===========================
  
 CREATE - Data File:    TZP-C
                        Carbon (TZP)



 ===============================
 M O D E L   P A R A M E T E R S
 ===============================
  
 DENSITY FUNCTIONAL POTENTIAL (scf)
    LDA:                               VWN                                      
    Gradient Corrections:              Becke88 Perdew86                        == Not Default ==

 SPIN  (restricted / unrestr.)
    Molecule:                          Restricted                               

 OTHER ASPECTS
    Relativistic Corrections:          ---                                      

    Nuclear Charge Density Model:      Point Charge Nuclei                      
    Core Treatment:                    Frozen Orbital(s)                        

    Hyperfine or Zeeman Interaction:   ---                                      



 =====================================
 S Y M M E T R Y ,   E L E C T R O N S
 =====================================
  
 Symmetry: ATOM

 Irreducible Representations, including subspecies
 -------------------------------------------------
 S
 P:x  P:y  P:z
 D:z2  D:x2-y2  D:xy  D:xz  D:yz
 F:z3  F:z  F:xyz  F:z2x  F:z2y  F:x  F:y


 Configuration of Valence Electrons
 ==================================

          Occupation Numbers
          -------------------------------------------------
 S        2*2
 P        2
 D        0
 F        0
          -------------------------------------------------

 Total:   6

 Net Charge: 0 (Nuclei minus Electrons)

 Preset values for MO occupations will be applied through SCF cycle no. 1000000
 Thereafter, the program will assign electrons to MOs that are spatially
 similar to the occupied MOs in a "reference" cycle ("KeepOrbitals").
 The reference cycle is always the PREVIOUS cycle: it will evolve with
 the SCF procedure.



 ================================
 (Slater-type)  F U N C T I O N S  ***  (Basis and Fit)  ***
 ================================
  

 Atom Type    1  (C)
 ==============

 Valence Basis Sets:   9
 -----------------------
   1 S    7.680000
   1 S    5.000000
   2 S    1.280000
   2 S    2.100000
   2 S    4.600000
   2 P    0.820000
   2 P    1.480000
   2 P    2.940000
   3 D    2.200000


 BAS: List of all Elementary Cartesian Basis Functions
 =====================================================

 The numbering in the list below (to the right of the function characteristics) is referred
 to in print-outs of MO eigenvectors and Mulliken populations in the BAS representation
 (as contrasted to the SFO representation).

 Notes:
 1. The functions are characterized by a polynomial prefactor (powers of x,y,z and r) and
    an exponential decay factor alpha.
 2. Since the basis sets are specific for an atom TYPE, the individual functions occur on
    all atoms of that type.
 3. The word 'Core' in the left margin signals that it is a Core Function (CF) : not a
    degree of freedom in the valence set, but only used to ensure orthogonalization of
    the other valence basis functions on the frozen Core Orbitals.


 (power of) X  Y  Z  R     Alpha  on Atom
            ==========     =====     ==========

 C                                    1
                                  ---------------------------------------------------------------------------
            0  0  0  0     7.680      1
            0  0  0  0     5.000      2
            0  0  0  1     1.280      3
            0  0  0  1     2.100      4
            0  0  0  1     4.600      5
            1  0  0  0     0.820      6
            0  1  0  0     0.820      7
            0  0  1  0     0.820      8
            1  0  0  0     1.480      9
            0  1  0  0     1.480     10
            0  0  1  0     1.480     11
            1  0  0  0     2.940     12
            0  1  0  0     2.940     13
            0  0  1  0     2.940     14
            2  0  0  0     2.200     15
            1  1  0  0     2.200     16
            1  0  1  0     2.200     17
            0  2  0  0     2.200     18
            0  1  1  0     2.200     19
            0  0  2  0     2.200     20

 Total number of charge fitting functions (nprimf)        84
 Total number of Cartesian basis functions (naos)         20
 Total number of Cartesian core functions  (ncos)          0



 BAS: List of all Elementary Cartesian Basis Functions
 =====================================================

 The numbering in the list below (to the right of the function characteristics) is referred
 to in print-outs of MO eigenvectors and Mulliken populations in the BAS representation
 (as contrasted to the SFO representation).

 Notes:
 1. The functions are characterized by a polynomial prefactor (powers of x,y,z and r) and
    an exponential decay factor alpha.
 2. Since the basis sets are specific for an atom TYPE, the individual functions occur on
    all atoms of that type.
 3. The word 'Core' in the left margin signals that it is a Core Function (CF) : not a
    degree of freedom in the valence set, but only used to ensure orthogonalization of
    the other valence basis functions on the frozen Core Orbitals.


 (power of) X  Y  Z  R     Alpha  on Atom
            ==========     =====     ==========

 C                                    1
                                  ---------------------------------------------------------------------------
            0  0  0  0     7.680      1
            0  0  0  0     5.000      2
            0  0  0  1     1.280      3
            0  0  0  1     2.100      4
            0  0  0  1     4.600      5
            1  0  0  0     0.820      6
            0  1  0  0     0.820      7
            0  0  1  0     0.820      8
            1  0  0  0     1.480      9
            0  1  0  0     1.480     10
            0  0  1  0     1.480     11
            1  0  0  0     2.940     12
            0  1  0  0     2.940     13
            0  0  1  0     2.940     14
            2  0  0  0     2.200     15
            1  1  0  0     2.200     16
            1  0  1  0     2.200     17
            0  2  0  0     2.200     18
            0  1  1  0     2.200     19
            0  0  2  0     2.200     20
1
 ***************************************************************************************************



                                              ***********************
                                              *  T E C H N I C A L  *
                                              ***********************
  



 =============================================================
 P A R A L L E L I Z A T I O N  and  V E C T O R I Z A T I O N
 =============================================================
  
 Nr of parallel processes:                                1
 Maximum vector length in NumInt loops:                 128

 IO buffersize (Mb):                                     64.000000



 =====================
 S C F   U P D A T E S
 =====================
  
 Max. nr. of cycles:                               300
 Convergence criterion:                              0.0000000100
   secondary criterion:                              0.0000000100

 Mix parameter (when DIIS does not apply):           0.2000000000
 Special mix parameter for the first cycle:          1.0000000000
 Mixed ADIIS+DIIS will be used
    Max number of expansion vectors:                10
    Pure ADIIS when Max([F,P]) is above              0.1000000000
    Pure DIIS when Max([F,P]) is below               0.0010000000
 Automatic ElectronSmearing (in case of problematic SCF convergence) disabled



 =================
 P R E C I S I O N  ***  (General: NumInt, NeglectFunctionTails, ...)  ***
 =================
  

 NumInt:           Target precision:                12.0000000000
 -------           Initial precision:               10.0000000000
                   Min. precision (optimization):   10.0000000000

 Neglect Functions:          Basis functions:        0.1000000000E-13
 ------------------          Fit functions:          0.1000000000E-13



 ===========================
 L I N E A R   S C A L I N G
 ===========================
  

 Cut-off radii density fit:                        0.1000000000E-97
 Overlap cut-off criterion AO matrix elements:     0.1000000000E-97
 Cut-offs for Coulomb potential and fitted density:0.1000000000E-97
 Cut-off criterion for Coulomb multipole terms:    0.1000000000E-97
 Progressive Convergence parameter:                 0.000000000    
1
 ***************************************************************************************************



                                            ***************************
                                            *  C O M P U T A T I O N  *
                                            ***************************
  

 Number of elements of the density matrix on this node (used, total):       210       210



 ===========================================
 Numerical Integration : Fuzzy Cells (Becke)
 ===========================================
  
 Becke grid quality: VERYGOOD       
  
 Lebedev angular grid order:             min:  13 max:  41
 Nr. of radial points:                   min:  72 max:  72

 Total nr. of points:         72
 Nr. of blocks:                1
 Block length:                72
 Nr. of dummy points:          0


 Test of Precision of the Numerical Integration Grid
 ===================================================

 Integral of the Total Core Density:                   0.00000000000000



 ========================
 Density Fitting (zlmFit)
 ========================
  
 ZlmFit Fit Quality: VERYGOOD       
  
 Max L-expansion:                        min:   0 max:   0
 Nr. of radial interpolation points:     min: 160 max: 160



 =====
 S C F  ***  ScaSCF  ***
 =====
  

 CYCLE    1
 SCF Error: norm([F,P])=      0.000000000000, max([F,P])=      0.000000000000
 orbitals (Q,E):
 ---------------
 S :1...5            ( 2.00   -17.9995)  ( 2.00    -4.4761)  ( 0.00    -1.9482)  ( 0.00     0.6812)
                     ( 0.00    42.8100)
 P :1...3            ( 2.00    -4.4994)  ( 0.00    -1.9807)  ( 0.00    -1.0849)
 D :1...1            ( 0.00    -1.9800)

 CYCLE    2
  SDIIS (wt  0.000):  1.0000 -0.0000
 A-DIIS (wt  1.000):  0.0000  1.0000
  DIIS coefficients:  0.0000  1.0000
 SCF Error: norm([F,P])=      4.483247543453, max([F,P])=      3.319692437215
 orbitals (Q,E):
 ---------------
 S :1...3            ( 2.00    -7.7796)  ( 2.00    -0.0272)  ( 0.00     0.8405)
 P :1...2            ( 2.00     0.1088)  ( 0.00     0.5815)
 D :1...1            ( 0.00     1.7650)

 CYCLE    3
  SDIIS (wt  0.000):  0.2146  0.7854
 A-DIIS (wt  1.000):  0.1002  0.8998
  DIIS coefficients:  0.1002  0.8998
 SCF Error: norm([F,P])=      1.615377071090, max([F,P])=      1.304101935147
 orbitals (Q,E):
 ---------------
 S :1...3            ( 2.00   -11.0618)  ( 2.00    -0.9719)  ( 0.00     0.1026)
 P :1...2            ( 2.00    -0.6633)  ( 0.00     0.0057)
 D :1...1            ( 0.00     0.8110)

 CYCLE    4
  SDIIS (wt  0.000): -0.0646  0.2204  0.8442
 A-DIIS (wt  1.000):  0.0000  0.0669  0.9331
  DIIS coefficients:  0.0000  0.0669  0.9331
 SCF Error: norm([F,P])=      0.727062835235, max([F,P])=      0.590531306529
 orbitals (Q,E):
 ---------------
 S :1...3            ( 2.00    -9.5928)  ( 2.00    -0.3589)  ( 0.00     0.4870)
 P :1...2            ( 2.00    -0.0657)  ( 0.00     0.2593)
 D :1...1            ( 0.00     1.3775)

 CYCLE    5
  SDIIS (wt  0.000): -0.0190 -0.0582  0.3730  0.7042
 A-DIIS (wt  1.000):  0.0000  0.0000  0.2349  0.7651
  DIIS coefficients:  0.0000  0.0000  0.2349  0.7651
 SCF Error: norm([F,P])=      0.408986877991, max([F,P])=      0.332637996057
 orbitals (Q,E):
 ---------------
 S :1...3            ( 2.00   -10.2125)  ( 2.00    -0.5796)  ( 0.00     0.3271)
 P :1...2            ( 2.00    -0.2644)  ( 0.00     0.1416)
 D :1...1            ( 0.00     1.1659)

 CYCLE    6
  SDIIS (wt  0.000):  0.0033 -0.0108 -0.0812  0.2121  0.8767
 A-DIIS (wt  1.000):  0.0000  0.0000  0.0000  0.0000  1.0000
  DIIS coefficients:  0.0000  0.0000  0.0000  0.0000  1.0000
 SCF Error: norm([F,P])=      0.135489187246, max([F,P])=      0.105944162354
 orbitals (Q,E):
 ---------------
 S :1...3            ( 2.00    -9.9299)  ( 2.00    -0.4611)  ( 0.00     0.4052)
 P :1...2            ( 2.00    -0.1536)  ( 0.00     0.1986)
 D :1...1            ( 0.00     1.2786)

 CYCLE    7
  SDIIS (wt  0.092): -0.0004  0.0033  0.0106 -0.1524  0.2655  0.8734
 A-DIIS (wt  0.908):  0.0000  0.0000  0.0000  0.0000  0.3950  0.6050
  DIIS coefficients: -0.0000  0.0003  0.0010 -0.0140  0.3831  0.6297
 SCF Error: norm([F,P])=      0.114064321572, max([F,P])=      0.090880191346
 orbitals (Q,E):
 ---------------
 S :1...3            ( 2.00   -10.0707)  ( 2.00    -0.5153)  ( 0.00     0.3674)
 P :1...2            ( 2.00    -0.2035)  ( 0.00     0.1706)
 D :1...1            ( 0.00     1.2270)

 CYCLE    8
  SDIIS (wt  0.917): -0.0001  0.0008  0.0035 -0.0258 -0.0091  0.1766  0.8542
 A-DIIS (wt  0.083):  0.0000  0.0000  0.0000  0.0000  0.0000  0.0000  1.0000
  DIIS coefficients: -0.0001  0.0008  0.0032 -0.0237 -0.0084  0.1619  0.8663
 SCF Error: norm([F,P])=      0.011703250036, max([F,P])=      0.009265507995
 orbitals (Q,E):
 ---------------
 S :1...3            ( 2.00   -10.0567)  ( 2.00    -0.5096)  ( 0.00     0.3711)
 P :1...2            ( 2.00    -0.1982)  ( 0.00     0.1732)
 D :1...1            ( 0.00     1.2325)

 CYCLE    9
  SDIIS (wt  1.000): -0.0000 -0.0000  0.0001  0.0005  0.0017 -0.0121 -0.0564  1.0662
  DIIS coefficients: -0.0000 -0.0000  0.0001  0.0005  0.0017 -0.0121 -0.0564  1.0662
 SCF Error: norm([F,P])=      0.000780147847, max([F,P])=      0.000617910361
 orbitals (Q,E):
 ---------------
 S :1...3            ( 2.00   -10.0576)  ( 2.00    -0.5099)  ( 0.00     0.3708)
 P :1...2            ( 2.00    -0.1985)  ( 0.00     0.1730)
 D :1...1            ( 0.00     1.2321)

 CYCLE   10
  SDIIS (wt  1.000): -0.0000  0.0000  0.0000 -0.0001  0.0000  0.0004  0.0021  0.0101  0.9875
  DIIS coefficients: -0.0000  0.0000  0.0000 -0.0001  0.0000  0.0004  0.0021  0.0101  0.9875
 SCF Error: norm([F,P])=      0.000001779704, max([F,P])=      0.000001066203
 orbitals (Q,E):
 ---------------
 S :1...3            ( 2.00   -10.0576)  ( 2.00    -0.5099)  ( 0.00     0.3708)
 P :1...2            ( 2.00    -0.1985)  ( 0.00     0.1730)
 D :1...1            ( 0.00     1.2321)

 CYCLE   11
  SDIIS (wt  1.000): -0.0000  0.0000  0.0000 -0.0003 -0.0294  1.0296
  DIIS coefficients: -0.0000  0.0000  0.0000 -0.0003 -0.0294  1.0296
 SCF Error: norm([F,P])=      0.000000243302, max([F,P])=      0.000000187857
 orbitals (Q,E):
 ---------------
 S :1...3            ( 2.00   -10.0576)  ( 2.00    -0.5099)  ( 0.00     0.3708)
 P :1...2            ( 2.00    -0.1985)  ( 0.00     0.1730)
 D :1...1            ( 0.00     1.2321)

 CYCLE   12
  SDIIS (wt  1.000): -0.0000  0.0000 -0.0010  0.0336  0.9674
  DIIS coefficients: -0.0000  0.0000 -0.0010  0.0336  0.9674
 SCF Error: norm([F,P])=      0.000000000721, max([F,P])=      0.000000000394
 orbitals (Q,E):
 ---------------
 S :1...3            ( 2.00   -10.0576)  ( 2.00    -0.5099)  ( 0.00     0.3708)
 P :1...2            ( 2.00    -0.1985)  ( 0.00     0.1730)
 D :1...1            ( 0.00     1.2321)

 SCF CONVERGED

 CYCLE   13
1
 ***************************************************************************************************



                                                *******************
                                                *  R E S U L T S  *
                                                *******************
  
 *** Setting up for NEW gradients in Focky
 *** Using FIT density in Focky

 Orbital Energies, per Irrep and Spin:
 ======================================
                        Occup              E (au)              E (eV)       Diff (eV) with prev. cycle
                        -----      --------------------        ------       --------------------------
 S
               1        2.000     -0.10057606152104E+02      -273.681               4.33E-11
               2        2.000     -0.50994760171307E+00       -13.876               3.04E-11
               3        0.000      0.37082872313773E+00        10.091
               4        0.000      0.54281205268443E+01       147.707
               5        0.000      0.50180681036969E+02      1365.486
 P
               1        2.000     -0.19854276084074E+00        -5.403               3.95E-11
               2        0.000      0.17303455321757E+00         4.709
               3        0.000      0.20264846286165E+01        55.143
 D
               1        0.000      0.12321250634418E+01        33.528


 Partially Occupied:
               1 P                -0.19854276084074E+00
  
 HOMO :        2 S                -0.50994760171307E+00
 LUMO :        2 P                 0.17303455321757E+00
  


 Orbital Energies, all Irreps
 ========================================

 Irrep        no.  (spin)   Occup              E (au)                E (eV)
 ---------------------------------------------------------------------------
 S             1             2.00       -0.10057606152104E+02      -273.6814
 S             2             2.00       -0.50994760171307E+00       -13.8764
 P             1             2.00       -0.19854276084074E+00        -5.4026
 P             2             0.00        0.17303455321757E+00         4.7085
 S             3             0.00        0.37082872313773E+00        10.0908
 D             1             0.00        0.12321250634418E+01        33.5278
 P             3             0.00        0.20264846286165E+01        55.1435
 S             4             0.00        0.54281205268443E+01       147.7067
 S             5             0.00        0.50180681036969E+02      1365.4858


 All Electron Calculation, thus no Orbital Energies of the Core Orbitals are calculated



 =======================================
 M U L L I K E N   P O P U L A T I O N S
 =======================================
  
 The survey below gives for each atom:
 a) the total charge (Z minus electrons)
 b) the net spin polarization (nr of electrons spin-A minus spin-B)
 c) for each spin the atomic electron valence density (integrated) per L-value.

 Atom              Charge    Spin density          S         P         D         F
 ----              ------    ------------       ------    ------    ------    ------
 1 C               0.0000                       4.0000    2.0000    0.0000    0.0000

 Populations of individual BAS functions
 ----------------------------------------
 1 C            0.4834  1.5186  0.9350  1.1213 -0.0582  0.1723  0.1723  0.1723  0.3913  0.3913
                0.3913  0.1031  0.1031  0.1031  0.0000  0.0000  0.0000  0.0000  0.0000  0.0000

 Gross Charges per Atom (Z minus electrons)
 ==========================================
             0.0000
 Net Total:  0.00000000



 =======================================================================
 Electrostatic potential at the Nuclei due to electrons and other nuclei
 =======================================================================
  
         Atom                  Potential
         ----                  ---------
     1)   C                  14.66972860


 ========================
 No memory problems found
 ========================

 Maximum number of active allocate calls:         361

 *******************************************************************************

                             A D F   E X I T
 NORMAL TERMINATION



 =================
 Timing Statistics
 =================
  
 Total Used :                     CPU=        0.95      System=        0.06     Elapsed=        1.52

 Calls  Section                     ( Mean, Percentage )
 ---------------------------------------------------------------------------------------------------
     3  ><      ................      0.00    0.42             0.00    0.00             0.00    0.34
     1  INIT    ................      0.07    7.59             0.04   64.29             0.62   41.00
     1  GEOMET  ................      0.03    2.95             0.01   14.29             0.03    2.22
     1  INPUTA  ................      0.01    0.84             0.00    0.00             0.01    0.45
     1  MAINSY  ................      0.02    1.69             0.00    0.00             0.02    1.03
     1  SYMFIT  ................      0.00    0.00             0.00    0.00             0.00    0.11
     1  CORORT  ................      0.00    0.00             0.00    0.00             0.00    0.11
     1  SYMORB  ................      0.00    0.42             0.00    0.00             0.00    0.09
     1  CLSMAT  ................      0.01    0.84             0.00    0.00             0.01    0.61
     1  ORTHON  ................      0.01    0.84             0.00    0.00             0.01    0.63
     1  GENPT   ................      0.03    2.95             0.00    0.00             0.03    1.74
     1  PTBAS   ................      0.00    0.42             0.00    0.00             0.01    0.38
    13  FOCKY   ................      0.05   67.51             0.00   14.29             0.05   41.88
    13  FOCKTR  ................      0.00    0.42             0.00    0.00             0.00    0.85
    13  SDIIS   ................      0.00    5.49             0.00    0.00             0.00    3.62
     1  COREPS  ................      0.03    2.95             0.00    7.14             0.03    2.08
     1  POPAN   ................      0.01    0.84             0.00    0.00             0.01    0.54
     1  DEBYE   ................      0.00    0.42             0.00    0.00             0.00    0.20
     1  EXIT PROCEDURE .........      0.03    3.38             0.00    0.00             0.03    2.13


 Currently Open Files (EXIT00)
 ====================

 Unit    Access Format  Status   Type       Ident (file)
 -------------------------------------------------------
   3      SEQ    FORM   TRANSP  NORMAL      LOGFILE
                                          ( logfile )


 Buffered I/O statistics
 =======================
 Memory available:                     67108864
 Number of records fitting in memory:     16131
 Input :   0.1% of                        18434  *4k bytes
 Output:  20.5% of                          777  *4k bytes
 Records from serial files evicted:           0
                    others evicted:           0
 Hash table lookups:      39218 with          0 conflicts (  0.00%)

 ***************************************************************************************************
 (LOGFILE)
 <Dec01-2018> <15:53:09>  ADF  RunTime: Dec01-2018 15:53:09  Nodes: 1  Procs: 1
 <Dec01-2018> <15:53:09>  Oxygen (TZP)
 <Dec01-2018> <15:53:09>  RunType   : CREATE
 <Dec01-2018> <15:53:09>  Net Charge: 0 (Nuclei minus Electrons)
 <Dec01-2018> <15:53:09>  Symmetry  : ATOM
  Coordinates
    Atom         X           Y           Z   (Angstrom)
    1.O         0.000000    0.000000    0.000000
 <Dec01-2018> <15:53:09>  >>>> CORORT
 <Dec01-2018> <15:53:09>  >>>> CLSMAT
 <Dec01-2018> <15:53:09>  >>>> ORTHON
 <Dec01-2018> <15:53:09>  >>>> GENPT
 <Dec01-2018> <15:53:09>  Block Length=  68
 <Dec01-2018> <15:53:09>  >>>> PTBAS
 <Dec01-2018> <15:53:09>  >>>> CYCLE
 <Dec01-2018> <15:53:10>              |Error|         MaxErr       Wt(A-DIIS)
 <Dec01-2018> <15:53:10>      1      0.00000000      0.00000000
 <Dec01-2018> <15:53:10>      2      8.76372386      5.50404708    100.0
 <Dec01-2018> <15:53:10>      3      3.55050355      2.50794093    100.0
 <Dec01-2018> <15:53:10>      4      1.16281649      0.58938545    100.0
 <Dec01-2018> <15:53:10>      5      1.41734471      0.79826275    100.0
 <Dec01-2018> <15:53:10>      6      0.11574194      0.06959067     69.3
 <Dec01-2018> <15:53:10>      7      0.06987877      0.04082871     40.2
 <Dec01-2018> <15:53:10>      8      0.00571053      0.00303876      2.1
 <Dec01-2018> <15:53:10>      9      0.00016063      0.00009082      0.0
 <Dec01-2018> <15:53:10>     10      0.00000038      0.00000015      0.0
 <Dec01-2018> <15:53:10>     11      0.00000001      0.00000000      0.0
 <Dec01-2018> <15:53:10>  SCF converged
 <Dec01-2018> <15:53:10>     12      0.00000000      0.00000000      0.0
 <Dec01-2018> <15:53:10>  >>>> POPAN
 <Dec01-2018> <15:53:10>  >>>> DEBYE
 <Dec01-2018> <15:53:10>  NORMAL TERMINATION
 <Dec01-2018> <15:53:10>  END
 <Dec01-2018> <15:53:11>  ADF  RunTime: Dec01-2018 15:53:11  Nodes: 1  Procs: 1
 <Dec01-2018> <15:53:11>  Carbon (TZP)
 <Dec01-2018> <15:53:11>  RunType   : CREATE
 <Dec01-2018> <15:53:11>  Net Charge: 0 (Nuclei minus Electrons)
 <Dec01-2018> <15:53:11>  Symmetry  : ATOM
  Coordinates
    Atom         X           Y           Z   (Angstrom)
    1.C         0.000000    0.000000    0.000000
 <Dec01-2018> <15:53:11>  >>>> CORORT
 <Dec01-2018> <15:53:11>  >>>> CLSMAT
 <Dec01-2018> <15:53:11>  >>>> ORTHON
 <Dec01-2018> <15:53:11>  >>>> GENPT
 <Dec01-2018> <15:53:11>  Block Length=  72
 <Dec01-2018> <15:53:11>  >>>> PTBAS
 <Dec01-2018> <15:53:11>  >>>> CYCLE
 <Dec01-2018> <15:53:11>              |Error|         MaxErr       Wt(A-DIIS)
 <Dec01-2018> <15:53:11>      1      0.00000000      0.00000000
 <Dec01-2018> <15:53:11>      2      4.48324754      3.31969244    100.0
 <Dec01-2018> <15:53:11>      3      1.61537707      1.30410194    100.0
 <Dec01-2018> <15:53:11>      4      0.72706284      0.59053131    100.0
 <Dec01-2018> <15:53:11>      5      0.40898688      0.33263800    100.0
 <Dec01-2018> <15:53:11>      6      0.13548919      0.10594416    100.0
 <Dec01-2018> <15:53:12>      7      0.11406432      0.09088019     90.8
 <Dec01-2018> <15:53:12>      8      0.01170325      0.00926551      8.3
 <Dec01-2018> <15:53:12>      9      0.00078015      0.00061791      0.0
 <Dec01-2018> <15:53:12>     10      0.00000178      0.00000107      0.0
 <Dec01-2018> <15:53:12>     11      0.00000024      0.00000019      0.0
 <Dec01-2018> <15:53:12>     12      0.00000000      0.00000000      0.0
 <Dec01-2018> <15:53:12>  SCF converged
 <Dec01-2018> <15:53:12>     13      0.00000000      0.00000000      0.0
 <Dec01-2018> <15:53:12>  >>>> POPAN
 <Dec01-2018> <15:53:12>  >>>> DEBYE
 <Dec01-2018> <15:53:12>  NORMAL TERMINATION
 <Dec01-2018> <15:53:12>  END


 Parallel Execution: Process Information
 ==============================================================================
 Rank   Node Name                              NodeID   MyNodeRank  NodeMaster
    0   fluorine.science.psu.edu                  0          0          0
    1   fluorine.science.psu.edu                  0          1         -1
    2   fluorine.science.psu.edu                  0          2         -1
    3   fluorine.science.psu.edu                  0          3         -1
 ==============================================================================


May use up to 2843MB of RAM as shared memory on node 0


atoms
C         0.002063    0.000000    0.000000
O         1.142913    0.000000    0.000000
end

symmetry nosym
allpoints

CHARGE 0

xc
 GGA BP86
end

AnalyticalFreq
End

NoSharedArrays

Fragments
O t21.O
C t21.C
End
end input
 input_parser input command:
 sh /amphome/rzc170/adfdevel_20180118/bin/input_parser.sh -i temporary_input.in -p adf
Keywords definitions OK.


Input error: Unrecognized keyword 'end'.


WARNING: Old input format!

 *******************************************************************************
 *                                                                             *
 *  -------------------------------------                                      *
 *   Amsterdam Density Functional  (ADF)                                       *
 *  -------------------------------------                                      *
 *                                               r                             *
 *                                                                             *
 *                                                                             *
 *                              =================                              *
 *                              |               |                              *
 *                              |     A D F     |                              *
 *                              |               |                              *
 *                              =================                              *
 *                                                                             *
 *                                                                             *
 *   Online information and documentation:  https://www.scm.com/support/       *
 *   E-mail:  support@scm.com   info@scm.com                                   *
 *                                                                             *
 *   Scientific publications using ADF results must be properly referenced     *
 *   See the User Manuals (or the web site) for recommended citations          *
 *   The terms and conditions of the End User License Agreement apply to       *
 *   the use of ADF, https://www.scm.com/license-terms/                        *
 *                                                                             *
 ************************  x86_64_linux_gnu / openmpi  *************************
 
 Licensed to: Prof. Lasse Jensen / Penn State University / University Park / PA  / USA
 SCM User ID: u8493
  
 ADF  RunTime: Dec01-2018 15:53:14  Nodes: 4  Procs: 4

 Temporary files are created in /scratch/kid_0.fYVdb9


Communication costs MPI_COMM_WORLD:     67.077 usec per message,   1.1368 usec per 8-byte item
Communication costs for intra-node:     -0.064 usec per message,   0.0005 usec per 8-byte item

 *** (NO TITLE) ***



 ===========================
 A T T A C H E D   F I L E S
 ===========================
  



 ===============================
 M O D E L   P A R A M E T E R S
 ===============================
  
 DENSITY FUNCTIONAL POTENTIAL (scf)
    LDA:                               VWN                                      
    Gradient Corrections:              Becke88 Perdew86                        == Not Default ==

 SPIN  (restricted / unrestr.)
    Molecule:                          Restricted                               
    Fragments:                         Restricted                               

 OTHER ASPECTS
    Relativistic Corrections:          ---                                      

    Nuclear Charge Density Model:      Point Charge Nuclei                      
    Core Treatment:                    Frozen Orbital(s)                        

    Hyperfine or Zeeman Interaction:   ---                                      


 Fragment File(s)
 ----------------
 C:
         file : t21.C
         jobid: ADF  RunTime: Dec01-2018 15:53:11  Nodes: 1  Procs: 1
         title: Carbon (TZP)
 O:
         file : t21.O
         jobid: ADF  RunTime: Dec01-2018 15:53:09  Nodes: 1  Procs: 1
         title: Oxygen (TZP)



                                        ************************************
                                        *  R U N   T Y P E : SINGLE POINT  *
                                        ************************************
  



 ===============
 G E O M E T R Y  ***  Linear Molecule  ***
 ===============
  

 ATOMS
 =====                            X Y Z                    CHARGE
                                (Angstrom)             Nucl     +Core       At.Mass
                       --------------------------    ----------------       -------
    1  C               0.0021    0.0000    0.0000      6.00      6.00       12.0000
    2  O               1.1429    0.0000    0.0000      8.00      8.00       15.9949


 FRAGMENTS
 =========                                     Atoms in this Fragment     Cart. coord.s (Angstrom)
                                               -------------------------------------------------------
    1  C                                                 1  C            0.0021    0.0000    0.0000
    2  O                                                 2  O            1.1429    0.0000    0.0000


 Interatomic Distance Matrix (Angstrom)
 --------------------------------------

   1)     0.000
   2)     1.141   0.000



 =====================================
 S Y M M E T R Y ,   E L E C T R O N S
 =====================================
  
 Symmetry: NOSYM

 Irreducible Representations, including subspecies
 -------------------------------------------------
 A


 Configuration of Valence Electrons
 ==================================
 ( determined in the SCF procedure )

 Total:   14

 Net Charge: 0 (Nuclei minus Electrons)

 Aufbau principle for MO occupations will be applied through SCF cycle no.     150
 Thereafter, the program will assign electrons to MOs that are spatially
 similar to the occupied MOs in a "reference" cycle ("KeepOrbitals").
 The reference cycle is always the PREVIOUS cycle: it will evolve with
 the SCF procedure.
1
 ***************************************************************************************************



                                      ****************************************
                                      *  B U I L D : (Fragments, Functions)  *
                                      ****************************************
  



 =======
 S F O s  ***  (Symmetrized Fragment Orbitals)  ***
 =======
  
 SFOs are linear combinations of (valence) Fragment Orbitals (FOs), such that the SFOs transform as the
 irreducible representations of the (molecular) symmetry group. Each SFO is therefore characterized by
 an irrep of the molecule and by a few (or only one) generating FOs.
 The SFOs constitute a symmetry-adapted basis for the Fock matrix. The MO eigenvector coefficients in
 this basis provide a direct interpretation of the MOs in terms of Frontier Orbital Theory.

 The SFOs are combined with auxiliary Core Functions (CFs) to ensure orthogonalization on the (frozen)
 Core Orbitals (COs). The Core-orthogonalized SFOs (CSFOs) constitute the true Fock basis.

 The FOs, and hence also the (C)SFOs are combinations of the elementary basis functions (BAS). The basis
 functions that participate in the description of the SFOs depend on the irrep. The indices of the
 involved functions are printed below for each irrep.
 (The complete list of primitive basis functions is printed in another section)

 Total nr. of (C)SFOs (summation over all irreps) :    38

 NOTE: a (C)SFO that is defined as a combination of more than one FO is usually NOT normalized.



                                       === A ===
 Nr. of SFOs :   38
 Cartesian basis functions that participate in this irrep (total number =    40) :
      1     2     3     4     5     6     9    12     7    10
     13     8    11    14    15    16    17    18    19    20
     21    22    23    24    25    26    29    32    27    30
     33    28    31    34    35    36    37    38    39    40

    SFO  (index         Fragment          Generating    Expansion in Fragment Orbitals
  indx  incl.CFs)   Occup   Orb.Energy   FragmentType  Coeff.   Orbital     on Fragment
 --------------------------------------------------------------------------------------
     1       1      2.000     -10.058 au  C             1.00      1 S               1
                        (    -273.681 eV)
     2       2      2.000      -0.510 au  C             1.00      2 S               1
                        (     -13.876 eV)
     3       3       --         0.371 au  C             1.00      3 S               1
                        (      10.091 eV)
     4       4       --         5.428 au  C             1.00      4 S               1
                        (     147.707 eV)
     5       5       --        50.181 au  C             1.00      5 S               1
                        (    1365.486 eV)
     6       6      0.667      -0.199 au  C             1.00      1 P:x             1
                        (      -5.403 eV)
     7       7       --         0.173 au  C             1.00      2 P:x             1
                        (       4.709 eV)
     8       8       --         2.026 au  C             1.00      3 P:x             1
                        (      55.143 eV)
     9       9      0.667      -0.199 au  C             1.00      1 P:y             1
                        (      -5.403 eV)
    10      10       --         0.173 au  C             1.00      2 P:y             1
                        (       4.709 eV)
    11      11       --         2.026 au  C             1.00      3 P:y             1
                        (      55.143 eV)
    12      12      0.667      -0.199 au  C             1.00      1 P:z             1
                        (      -5.403 eV)
    13      13       --         0.173 au  C             1.00      2 P:z             1
                        (       4.709 eV)
    14      14       --         2.026 au  C             1.00      3 P:z             1
                        (      55.143 eV)
    15      15       --         1.232 au  C             1.00      1 D:z2            1
                        (      33.528 eV)
    16      16       --         1.232 au  C             1.00      1 D:x2-y2         1
                        (      33.528 eV)
    17      17       --         1.232 au  C             1.00      1 D:xy            1
                        (      33.528 eV)
    18      18       --         1.232 au  C             1.00      1 D:xz            1
                        (      33.528 eV)
    19      19       --         1.232 au  C             1.00      1 D:yz            1
                        (      33.528 eV)
    20      20      2.000     -18.920 au  O             1.00      1 S               2
                        (    -514.832 eV)
    21      21      2.000      -0.884 au  O             1.00      2 S               2
                        (     -24.063 eV)
    22      22       --         0.790 au  O             1.00      3 S               2
                        (      21.506 eV)
    23      23       --        13.478 au  O             1.00      4 S               2
                        (     366.751 eV)
    24      24       --       123.136 au  O             1.00      5 S               2
                        (    3350.698 eV)
    25      25      1.333      -0.337 au  O             1.00      1 P:x             2
                        (      -9.171 eV)
    26      26       --         0.355 au  O             1.00      2 P:x             2
                        (       9.656 eV)
    27      27       --         3.837 au  O             1.00      3 P:x             2
                        (     104.420 eV)
    28      28      1.333      -0.337 au  O             1.00      1 P:y             2
                        (      -9.171 eV)
    29      29       --         0.355 au  O             1.00      2 P:y             2
                        (       9.656 eV)
    30      30       --         3.837 au  O             1.00      3 P:y             2
                        (     104.420 eV)
    31      31      1.333      -0.337 au  O             1.00      1 P:z             2
                        (      -9.171 eV)
    32      32       --         0.355 au  O             1.00      2 P:z             2
                        (       9.656 eV)
    33      33       --         3.837 au  O             1.00      3 P:z             2
                        (     104.420 eV)
    34      34       --         1.062 au  O             1.00      1 D:z2            2
                        (      28.885 eV)
    35      35       --         1.062 au  O             1.00      1 D:x2-y2         2
                        (      28.885 eV)
    36      36       --         1.062 au  O             1.00      1 D:xy            2
                        (      28.885 eV)
    37      37       --         1.062 au  O             1.00      1 D:xz            2
                        (      28.885 eV)
    38      38       --         1.062 au  O             1.00      1 D:yz            2
                        (      28.885 eV)



 ================================
 (Slater-type)  F U N C T I O N S  ***  (Basis and Fit)  ***
 ================================
  

 Atom Type    1  (C)
 ==============

 Valence Basis Sets:   9
 -----------------------
   1 S    7.680000
   1 S    5.000000
   2 S    1.280000
   2 S    2.100000
   2 S    4.600000
   2 P    0.820000
   2 P    1.480000
   2 P    2.940000
   3 D    2.200000

 Atom Type    2  (O)
 ==============

 Valence Basis Sets:   9
 -----------------------
   1 S    9.800000
   1 S    6.800000
   2 S    7.580000
   2 S    2.880000
   2 S    1.720000
   2 P    4.080000
   2 P    2.080000
   2 P    1.120000
   3 D    2.000000


 BAS: List of all Elementary Cartesian Basis Functions
 =====================================================

 The numbering in the list below (to the right of the function characteristics) is referred
 to in print-outs of MO eigenvectors and Mulliken populations in the BAS representation
 (as contrasted to the SFO representation).

 Notes:
 1. The functions are characterized by a polynomial prefactor (powers of x,y,z and r) and
    an exponential decay factor alpha.
 2. Since the basis sets are specific for an atom TYPE, the individual functions occur on
    all atoms of that type.
 3. The word 'Core' in the left margin signals that it is a Core Function (CF) : not a
    degree of freedom in the valence set, but only used to ensure orthogonalization of
    the other valence basis functions on the frozen Core Orbitals.


 (power of) X  Y  Z  R     Alpha  on Atom
            ==========     =====     ==========

 C                                    1
                                  ---------------------------------------------------------------------------
            0  0  0  0     7.680      1
            0  0  0  0     5.000      2
            0  0  0  1     1.280      3
            0  0  0  1     2.100      4
            0  0  0  1     4.600      5
            1  0  0  0     0.820      6
            0  1  0  0     0.820      7
            0  0  1  0     0.820      8
            1  0  0  0     1.480      9
            0  1  0  0     1.480     10
            0  0  1  0     1.480     11
            1  0  0  0     2.940     12
            0  1  0  0     2.940     13
            0  0  1  0     2.940     14
            2  0  0  0     2.200     15
            1  1  0  0     2.200     16
            1  0  1  0     2.200     17
            0  2  0  0     2.200     18
            0  1  1  0     2.200     19
            0  0  2  0     2.200     20

 O                                    2
                                  ---------------------------------------------------------------------------
            0  0  0  0     9.800     21
            0  0  0  0     6.800     22
            0  0  0  1     7.580     23
            0  0  0  1     2.880     24
            0  0  0  1     1.720     25
            1  0  0  0     4.080     26
            0  1  0  0     4.080     27
            0  0  1  0     4.080     28
            1  0  0  0     2.080     29
            0  1  0  0     2.080     30
            0  0  1  0     2.080     31
            1  0  0  0     1.120     32
            0  1  0  0     1.120     33
            0  0  1  0     1.120     34
            2  0  0  0     2.000     35
            1  1  0  0     2.000     36
            1  0  1  0     2.000     37
            0  2  0  0     2.000     38
            0  1  1  0     2.000     39
            0  0  2  0     2.000     40

 Total number of charge fitting functions (nprimf)       168
 Total number of Cartesian basis functions (naos)         40
 Total number of Cartesian core functions  (ncos)          0

1
 ***************************************************************************************************



                                              ***********************
                                              *  T E C H N I C A L  *
                                              ***********************
  



 =============================================================
 P A R A L L E L I Z A T I O N  and  V E C T O R I Z A T I O N
 =============================================================
  
 Nr of parallel processes:                                4
 Maximum vector length in NumInt loops:                 128

 IO buffersize (Mb):                                     64.000000



 =====================
 S C F   U P D A T E S
 =====================
  
 Max. nr. of cycles:                               300
 Convergence criterion:                              0.0000010000
   secondary criterion:                              0.0010000000

 Mix parameter (when DIIS does not apply):           0.2000000000
 Mixed ADIIS+DIIS will be used
    Max number of expansion vectors:                10
    Pure ADIIS when Max([F,P]) is above              0.1000000000
    Pure DIIS when Max([F,P]) is below               0.0010000000
 Automatic ElectronSmearing (in case of problematic SCF convergence) disabled



 =================
 P R E C I S I O N  ***  (General: NumInt, NeglectFunctionTails, ...)  ***
 =================
  

 NumInt:           Target precision:                 4.0000000000
 -------           Initial precision:                4.0000000000
                   Min. precision (optimization):    4.0000000000

 Neglect Functions:          Basis functions:        0.1000000000E-05
 ------------------          Fit functions:          0.1000000000E-05



 ===========================
 L I N E A R   S C A L I N G
 ===========================
  

 Cut-off radii density fit:                        0.1000000000E-07
 Overlap cut-off criterion AO matrix elements:     0.1000000000E-05
 Cut-offs for Coulomb potential and fitted density:0.1000000000E-07
 Cut-off criterion for Coulomb multipole terms:    0.1000000000E-07
 Progressive Convergence parameter:                 0.000000000    
1
 ***************************************************************************************************



                                            ***************************
                                            *  C O M P U T A T I O N  *
                                            ***************************
  

 Number of elements of the density matrix on this node (used, total):       210       820



 ===========================================
 Numerical Integration : Fuzzy Cells (Becke)
 ===========================================
  
 Becke grid quality: NORMAL         
  
 Lebedev angular grid order:             min:  11 max:  23
 Nr. of radial points:                   min:  49 max:  52

 Total nr. of points:      13050
 Nr. of blocks:              102
 Block length:               128
 Nr. of dummy points:          6


 Test of Precision of the Numerical Integration Grid
 ===================================================

 Integral of the Total Core Density:                   0.00000000000000



 ========================
 Density Fitting (zlmFit)
 ========================
  
 ZlmFit Fit Quality: NORMAL         
  
 Max L-expansion:                        min:   6 max:   6
 Nr. of radial interpolation points:     min:  48 max:  54



 =====
 S C F  ***  ScaSCF  ***
 =====
  
 Initial density matrix is calculated as sum of fragments

 CYCLE    1
 SCF Error: norm([F,P])=      2.877149581103, max([F,P])=      1.710008087933
 orbitals (Q,E):
 ---------------
 A :1...17           ( 2.00   -19.0267)  ( 2.00   -10.1180)  ( 2.00    -1.1788)  ( 2.00    -0.6074)
                     ( 2.00    -0.5091)  ( 2.00    -0.5091)  ( 2.00    -0.3979)  ( 0.00    -0.1332)
                     ( 0.00    -0.1332)  ( 0.00     0.0872)  ( 0.00     0.1399)  ( 0.00     0.1399)
                     ( 0.00     0.2637)  ( 0.00     0.3505)  ( 0.00     0.4331)  ( 0.00     0.4331)
                     ( 0.00     0.4870)

 CYCLE    2
   MIX coefficients:  0.8000  0.2000
 SCF Error: norm([F,P])=      0.441988256289, max([F,P])=      0.155531463200
 orbitals (Q,E):
 ---------------
 A :1...8            ( 2.00   -18.9392)  ( 2.00   -10.0991)  ( 2.00    -1.1362)  ( 2.00    -0.5677)
                     ( 2.00    -0.4742)  ( 2.00    -0.4742)  ( 2.00    -0.3836)  ( 0.00    -0.1149)

 CYCLE    3
  SDIIS (wt  0.000): -0.3418  1.3418
 A-DIIS (wt  1.000):  0.0000  1.0000
  DIIS coefficients:  0.0000  1.0000
 SCF Error: norm([F,P])=      0.157290691401, max([F,P])=      0.039450511912
 orbitals (Q,E):
 ---------------
 A :1...8            ( 2.00   -18.7923)  ( 2.00    -9.9774)  ( 2.00    -1.0346)  ( 2.00    -0.4882)
                     ( 2.00    -0.3999)  ( 2.00    -0.3999)  ( 2.00    -0.3129)  ( 0.00    -0.0547)

 CYCLE    4
  SDIIS (wt  0.000):  0.3792 -0.0462  0.6670
 A-DIIS (wt  1.000):  0.0000  0.6457  0.3543
  DIIS coefficients:  0.0000  0.6457  0.3543
 SCF Error: norm([F,P])=      0.242649205631, max([F,P])=      0.089905615268
 orbitals (Q,E):
 ---------------
 A :1...8            ( 2.00   -18.8827)  ( 2.00    -9.9957)  ( 2.00    -1.0721)  ( 2.00    -0.5220)
                     ( 2.00    -0.4309)  ( 2.00    -0.4309)  ( 2.00    -0.3241)  ( 0.00    -0.0708)

 CYCLE    5
  SDIIS (wt  0.551): -0.1277  0.4575  0.1533  0.5168
 A-DIIS (wt  0.449):  0.0000  0.0000  0.1960  0.8040
  DIIS coefficients: -0.0704  0.2521  0.1725  0.6458
 SCF Error: norm([F,P])=      0.098011757081, max([F,P])=      0.045458731062
 orbitals (Q,E):
 ---------------
 A :1...8            ( 2.00   -18.8833)  ( 2.00   -10.0451)  ( 2.00    -1.0814)  ( 2.00    -0.5243)
                     ( 2.00    -0.4366)  ( 2.00    -0.4366)  ( 2.00    -0.3440)  ( 0.00    -0.0840)

 CYCLE    6
  SDIIS (wt  0.705):  0.0096  0.0224  0.0181  0.3699  0.5800
 A-DIIS (wt  0.295):  0.0000  0.0000  0.0000  0.3410  0.6590
  DIIS coefficients:  0.0068  0.0158  0.0128  0.3614  0.6033
 SCF Error: norm([F,P])=      0.063486835144, max([F,P])=      0.030163128364
 orbitals (Q,E):
 ---------------
 A :1...8            ( 2.00   -18.8855)  ( 2.00   -10.0275)  ( 2.00    -1.0792)  ( 2.00    -0.5249)
                     ( 2.00    -0.4355)  ( 2.00    -0.4355)  ( 2.00    -0.3377)  ( 0.00    -0.0799)

 CYCLE    7
  SDIIS (wt  0.974): -0.0049  0.0106  0.0099  0.0541  0.1322  0.7980
 A-DIIS (wt  0.026):  0.0000  0.0000  0.0000  0.0000  0.0000  1.0000
  DIIS coefficients: -0.0048  0.0104  0.0096  0.0526  0.1288  0.8033
 SCF Error: norm([F,P])=      0.007918808146, max([F,P])=      0.003605377168
 orbitals (Q,E):
 ---------------
 A :1...8            ( 2.00   -18.8839)  ( 2.00   -10.0280)  ( 2.00    -1.0788)  ( 2.00    -0.5243)
                     ( 2.00    -0.4350)  ( 2.00    -0.4350)  ( 2.00    -0.3378)  ( 0.00    -0.0798)

 CYCLE    8
  SDIIS (wt  1.000): -0.0004  0.0006  0.0011  0.0027  0.0085  0.1543  0.8331
  DIIS coefficients: -0.0004  0.0006  0.0011  0.0027  0.0085  0.1543  0.8331
 SCF Error: norm([F,P])=      0.000749244020, max([F,P])=      0.000343473739
 orbitals (Q,E):
 ---------------
 A :1...8            ( 2.00   -18.8840)  ( 2.00   -10.0280)  ( 2.00    -1.0788)  ( 2.00    -0.5243)
                     ( 2.00    -0.4351)  ( 2.00    -0.4351)  ( 2.00    -0.3378)  ( 0.00    -0.0798)

 CYCLE    9
[...]
                   Computer Physics Communications 100 (1997) 247.
                  
                   Heiko Jacobsen, Attila Berces
                   David Swerhone, Tom Ziegler,
                   Computer Physics Communications 100 (1997) 263.
                  
                   Stephen K. Wolff
                   Int. J. Quantum Chem. 104 (2005) 645.
                  
                  ------------------------------------------------
                  
              <><><><><><><><><><><><><><><><><><><><><><><><><>
 
                 SECOND DERIVATIVES INFORMATION:
                 -------------------------------
 
                 === PRINT
 
                   EIGS,  lprint_eigbas =  F
                   U1,    lprint_u1     =  F
                   PARTS, lprint_parts  =  F
 
                 === DEBUG
 
                   ALL        =  F
                   B1         =  F
                   DENSITIES  =  F
                   FIT        =  F
                   HESSIAN    =  F
                   NUMBERS    =  F
                   SYMMETRY   =  F
                   U1         =  F
 
                 === CPKS
 
                   MAX_CPKS_ITERATIONS    =    20
                   U1_ACCURACY PARAMETER  =     5.00
                   U1 ACCURACY            =     0.0000100
 

                 Estimated peak private memory usage    164 MB per process
                                 shared memory usage     11 MB per node

              <><><><><><><><><><><><><><><><><><><><><><><><><>

######## LOOPING OVER NUCLEI ########

==========================
###### NUCLEUS:     1  C  
==========================

====================  solving CPKS equations  ====================

NUCLEUS  COORD.    ITERATION   ACCURACY
-------  ------    ---------   --------
    1       1          1       0.10517382D+00
    1       1          2       0.23279833D-01
    1       1          3       0.87362596D-03
    1       1          4       0.14801337D-03
    1       1          5       0.12526632D-04
    1       1          6       0.72891910D-06
*** CPKS converged.
----------------------------------------------
    1       2          1       0.63685709D-01
    1       2          2       0.25489225D-02
    1       2          3       0.21747222D-03
    1       2          4       0.76199911D-05
*** CPKS converged.
----------------------------------------------
    1       3          1       0.63685697D-01
    1       3          2       0.25489211D-02
    1       3          3       0.21747023D-03
    1       3          4       0.75172403D-05
*** CPKS converged.
----------------------------------------------

====================  end of solving CPKS equations  ====================

==========================
###### NUCLEUS:     2  O  
==========================

====================  solving CPKS equations  ====================

NUCLEUS  COORD.    ITERATION   ACCURACY
-------  ------    ---------   --------
    2       1          1       0.10484637D+00
    2       1          2       0.23124387D-01
    2       1          3       0.88036740D-03
    2       1          4       0.15163820D-03
    2       1          5       0.12995739D-04
    2       1          6       0.83836571D-06
*** CPKS converged.
----------------------------------------------
    2       2          1       0.62184652D-01
    2       2          2       0.25820558D-02
    2       2          3       0.21868322D-03
    2       2          4       0.74689731D-05
*** CPKS converged.
----------------------------------------------
    2       3          1       0.62184647D-01
    2       3          2       0.25820543D-02
    2       3          3       0.21868256D-03
    2       3          4       0.71860836D-05
*** CPKS converged.
----------------------------------------------

====================  end of solving CPKS equations  ====================

 ***************************************************************************************************



                                     ******************************************
                                     *  F R E Q U E N C Y    A N A L Y S I S  *
                                     ******************************************
  


 Atomic Masses:
 ---------------
    1. C              12.00000000
    2. O              15.99491400



 ======================================
 Normal Modes in Symmetry Displacements  ***  (cartesians, not mass-weighted)  ***
 ======================================
  


                                       === A ===

 Symmetry Displacements


                          1
              ------------------------      ------------------------      ------------------------
    1.C          0.218   0.000   0.000
    2.O         -0.164   0.000   0.000


 Frequencies and Normal Modes
 ============================

             1

         2102.5263
        ----------
   1    1.00000000


 Intensities
 ===========

               Frequency       Dipole Strength        Absorption Intensity (degeneracy not counted)
                 cm-1           1e-40 esu2 cm2          km/mole
              ----------          ----------          ----------
             2102.526289          138.712032           73.102737



 Zero-Point Energy :      0.004790 a.u.
 ===================      0.130340 eV
                                                   hartree              eV         kcal/mol           kJ/mol
                                      --------------------     -----------       ----------      -----------
              Bond Energy:              -0.539637774522152        -14.6843          -338.63         -1416.82
              Zero-Point Energy:         0.004789907457850          0.1303             3.01            12.58
              Enthalpy (T=0K):          -0.534847867064302        -14.5540          -335.62         -1404.24



 ===========================
 Vibrations and Normal Modes  ***  (cartesian coordinates, NOT mass-weighted)  ***
 ===========================
  
 The headers on the normal mode eigenvectors below give the Frequency in cm-1
 (a negative value means an imaginary frequency, no output for (almost-)zero frequencies)


                      2102.526
              ------------------------      ------------------------      ------------------------
    1.C         -0.800   0.000   0.000
    2.O          0.600   0.000   0.000




 List of All Frequencies:


 Intensities
 ===========

               Frequency       Dipole Strength        Absorption Intensity (degeneracy not counted)
                 cm-1           1e-40 esu2 cm2          km/mole
              ----------          ----------          ----------
             2102.526289          138.712032           73.102737



 ============================
 Statistical Thermal Analysis  ***  ideal gas assumed  ***
 ============================
  
 Pressure:                  1.000000 atm.
 Temperature:             298.150000 K



 Moments of Inertia (and direction vectors)
 ==========================================

           0.0000         31.8668         31.8668
 ------------------------------------------------
           1.0000          0.0000          0.0000
           0.0000          1.0000          0.0000
           0.0000          0.0000          1.0000


 The rotational contribution to the molecular entropy includes
 a term, dependent on the symmetry number sigma. The results 
 reported below were computed using sigma = 1, determined from
 the point group symmetry of the input geometry (C(LIN)). 
 If this is not the correct symmetry, please contact SCM to report a bug.
 Contributions from frequencies below 20 1/cm are not included in
 the vibrational sums. Their contributions, if any, are reported separately.


     Temp                                                       Transl     Rotat    Vibrat     Total
     ----                                                       ------     -----    ------     -----

     298.15   Entropy (cal/mole-K):                             35.923    11.323     0.001    47.246
              Internal Energy (Kcal/mole):                       0.889     0.592     3.006     4.487
              Constant Volume Heat Capacity (cal/mole-K):        2.981     1.987     0.008     4.976

              Summary of energy terms
                                                   hartree              eV         kcal/mol           kJ/mol
                                      --------------------     -----------       ----------      -----------
              Bond Energy:              -0.539637774522152        -14.6843          -338.63         -1416.82
              Internal Energy:           0.007150748168049          0.1946             4.49            18.77
              pV/n = RT:                 0.000944186013486          0.0257             0.59             2.48
              Enthalpy H:               -0.531542840340617        -14.4640          -333.55         -1395.57
              -T*S:                     -0.022448306456733         -0.6108           -14.09           -58.94
              Gibbs free energy:        -0.553991146797350        -15.0749          -347.63         -1454.50
 

 ***************************************************************************************************
 


====================================================================
*** DONE CALCULATING ANALYTICAL SECOND DERIVATIVES OF THE ENERGY ***
====================================================================



 ========================
 No memory problems found
 ========================

 Maximum number of active allocate calls:         780

 *******************************************************************************

                             A D F   E X I T
 NORMAL TERMINATION



 =================
 Timing Statistics
 =================
  
 Total Used :                     CPU=       19.69      System=        0.16     Elapsed=       29.60

 Calls  Section                     ( Mean, Percentage )
 ---------------------------------------------------------------------------------------------------
     3  ><      ................      0.00    0.02             0.00    0.00             0.00    0.02
     1  INIT    ................      4.50   22.84             0.06   38.46             7.87   26.60
     1  GEOMET  ................      0.25    1.28             0.00    2.56             0.30    1.01
     1  FRAGM   ................      0.02    0.10             0.00    0.00             0.04    0.14
     1  INPUTA  ................      0.00    0.02             0.00    0.00             0.00    0.01
     1  ATDEN   ................      0.01    0.04             0.00    0.00             0.02    0.08
     1  MAINSY  ................      0.03    0.14             0.00    0.00             0.04    0.13
     1  SYMFIT  ................      0.00    0.02             0.00    0.00             0.00    0.01
     1  CORORT  ................      0.00    0.00             0.00    0.00             0.00    0.01
     1  SYMORB  ................      0.00    0.02             0.00    0.00             0.00    0.01
     1  CLSMAT  ................      0.07    0.35             0.00    0.00             0.07    0.23
     1  ORTHON  ................      0.03    0.16             0.00    0.00             0.03    0.10
     1  GENPT   ................      0.23    1.16             0.00    2.56             0.39    1.30
     1  PTBAS   ................      0.18    0.89             0.00    0.00             0.18    0.60
    11  FOCKY   ................      0.27   14.85             0.00    5.13             0.32   12.03
    11  FOCKTR  ................      0.00    0.06             0.00    0.00             0.00    0.03
    11  SDIIS   ................      0.02    1.12             0.00    2.56             0.03    0.98
     1  COREPS  ................      0.17    0.85             0.00    0.00             0.17    0.57
     1  TOTEN   ................      0.30    1.52             0.00    2.56             0.62    2.08
     1  POPAN   ................      0.02    0.10             0.00    2.56             0.04    0.12
     1  DEBYE   ................      0.06    0.28             0.00    2.56             0.07    0.25
     1  INPUTE  ................      0.00    0.00             0.00    0.00             0.00    0.02
     1  SYMORE  ................      0.00    0.02             0.00    0.00             0.00    0.00
     1  METS    ................      0.00    0.00             0.00    0.00             0.00    0.01
     1  CETS    ................      0.01    0.04             0.00    0.00             0.01    0.04
     2  ELNRGY  ................      0.25    2.54             0.00    5.13             0.27    1.85
     1  POPUL   ................      0.02    0.08             0.00    0.00             0.04    0.14
     1  ENGRAD  ................      0.00    0.02             0.00    0.00             0.00    0.00
     1  ENHESS  ................     10.11   51.36             0.05   33.33            15.24   51.51
     1  EXIT PROCEDURE .........      0.02    0.10             0.00    2.56             0.03    0.10


 Currently Open Files (EXIT00)
 ====================

 Unit    Access Format  Status   Type       Ident (file)
 -------------------------------------------------------
   3      SEQ    FORM   TRANSP  NORMAL      LOGFILE
                                          ( logfile )


 Buffered I/O statistics
 =======================
 Memory available:                     67108864
 Number of records fitting in memory:     16131
 Input :   0.2% of                        73114  *4k bytes
 Output:   8.8% of                         3590  *4k bytes
 Records from serial files evicted:           0
                    others evicted:           0
 Hash table lookups:     161897 with          0 conflicts (  0.00%)

 ***************************************************************************************************
 (LOGFILE)
 <Dec01-2018> <15:53:09>  ADF  RunTime: Dec01-2018 15:53:09  Nodes: 1  Procs: 1
 <Dec01-2018> <15:53:09>  Oxygen (TZP)
 <Dec01-2018> <15:53:09>  RunType   : CREATE
 <Dec01-2018> <15:53:09>  Net Charge: 0 (Nuclei minus Electrons)
 <Dec01-2018> <15:53:09>  Symmetry  : ATOM
  Coordinates
    Atom         X           Y           Z   (Angstrom)
    1.O         0.000000    0.000000    0.000000
 <Dec01-2018> <15:53:09>  >>>> CORORT
 <Dec01-2018> <15:53:09>  >>>> CLSMAT
 <Dec01-2018> <15:53:09>  >>>> ORTHON
 <Dec01-2018> <15:53:09>  >>>> GENPT
 <Dec01-2018> <15:53:09>  Block Length=  68
 <Dec01-2018> <15:53:09>  >>>> PTBAS
 <Dec01-2018> <15:53:09>  >>>> CYCLE
 <Dec01-2018> <15:53:10>              |Error|         MaxErr       Wt(A-DIIS)
 <Dec01-2018> <15:53:10>      1      0.00000000      0.00000000
 <Dec01-2018> <15:53:10>      2      8.76372386      5.50404708    100.0
 <Dec01-2018> <15:53:10>      3      3.55050355      2.50794093    100.0
 <Dec01-2018> <15:53:10>      4      1.16281649      0.58938545    100.0
 <Dec01-2018> <15:53:10>      5      1.41734471      0.79826275    100.0
 <Dec01-2018> <15:53:10>      6      0.11574194      0.06959067     69.3
 <Dec01-2018> <15:53:10>      7      0.06987877      0.04082871     40.2
 <Dec01-2018> <15:53:10>      8      0.00571053      0.00303876      2.1
 <Dec01-2018> <15:53:10>      9      0.00016063      0.00009082      0.0
 <Dec01-2018> <15:53:10>     10      0.00000038      0.00000015      0.0
 <Dec01-2018> <15:53:10>     11      0.00000001      0.00000000      0.0
 <Dec01-2018> <15:53:10>  SCF converged
 <Dec01-2018> <15:53:10>     12      0.00000000      0.00000000      0.0
 <Dec01-2018> <15:53:10>  >>>> POPAN
 <Dec01-2018> <15:53:10>  >>>> DEBYE
 <Dec01-2018> <15:53:10>  NORMAL TERMINATION
 <Dec01-2018> <15:53:10>  END
 <Dec01-2018> <15:53:11>  ADF  RunTime: Dec01-2018 15:53:11  Nodes: 1  Procs: 1
 <Dec01-2018> <15:53:11>  Carbon (TZP)
 <Dec01-2018> <15:53:11>  RunType   : CREATE
 <Dec01-2018> <15:53:11>  Net Charge: 0 (Nuclei minus Electrons)
 <Dec01-2018> <15:53:11>  Symmetry  : ATOM
  Coordinates
    Atom         X           Y           Z   (Angstrom)
    1.C         0.000000    0.000000    0.000000
 <Dec01-2018> <15:53:11>  >>>> CORORT
 <Dec01-2018> <15:53:11>  >>>> CLSMAT
 <Dec01-2018> <15:53:11>  >>>> ORTHON
 <Dec01-2018> <15:53:11>  >>>> GENPT
 <Dec01-2018> <15:53:11>  Block Length=  72
 <Dec01-2018> <15:53:11>  >>>> PTBAS
 <Dec01-2018> <15:53:11>  >>>> CYCLE
 <Dec01-2018> <15:53:11>              |Error|         MaxErr       Wt(A-DIIS)
 <Dec01-2018> <15:53:11>      1      0.00000000      0.00000000
 <Dec01-2018> <15:53:11>      2      4.48324754      3.31969244    100.0
 <Dec01-2018> <15:53:11>      3      1.61537707      1.30410194    100.0
 <Dec01-2018> <15:53:11>      4      0.72706284      0.59053131    100.0
 <Dec01-2018> <15:53:11>      5      0.40898688      0.33263800    100.0
 <Dec01-2018> <15:53:11>      6      0.13548919      0.10594416    100.0
 <Dec01-2018> <15:53:12>      7      0.11406432      0.09088019     90.8
 <Dec01-2018> <15:53:12>      8      0.01170325      0.00926551      8.3
 <Dec01-2018> <15:53:12>      9      0.00078015      0.00061791      0.0
 <Dec01-2018> <15:53:12>     10      0.00000178      0.00000107      0.0
 <Dec01-2018> <15:53:12>     11      0.00000024      0.00000019      0.0
 <Dec01-2018> <15:53:12>     12      0.00000000      0.00000000      0.0
 <Dec01-2018> <15:53:12>  SCF converged
 <Dec01-2018> <15:53:12>     13      0.00000000      0.00000000      0.0
 <Dec01-2018> <15:53:12>  >>>> POPAN
 <Dec01-2018> <15:53:12>  >>>> DEBYE
 <Dec01-2018> <15:53:12>  NORMAL TERMINATION
 <Dec01-2018> <15:53:12>  END
 <Dec01-2018> <15:53:14>  ADF  RunTime: Dec01-2018 15:53:14  Nodes: 4  Procs: 4
 <Dec01-2018> <15:53:20>  *** (NO TITLE) ***
 <Dec01-2018> <15:53:20>  RunType   : SINGLE POINT
 <Dec01-2018> <15:53:21>  Net Charge: 0 (Nuclei minus Electrons)
 <Dec01-2018> <15:53:21>  Symmetry  : NOSYM
 <Dec01-2018> <15:53:21>  >>>> FRAGM
  Coordinates
    Atom         X           Y           Z   (Angstrom)
    1.C         0.002063    0.000000    0.000000
    2.O         1.142913    0.000000    0.000000
 <Dec01-2018> <15:53:21>  >>>> CORORT
 <Dec01-2018> <15:53:21>  >>>> CLSMAT
 <Dec01-2018> <15:53:21>  >>>> ORTHON
 <Dec01-2018> <15:53:21>  >>>> GENPT
 <Dec01-2018> <15:53:21>  Block Length= 128
 <Dec01-2018> <15:53:21>  >>>> PTBAS
 <Dec01-2018> <15:53:21>  >>>> CYCLE
 <Dec01-2018> <15:53:22>              |Error|         MaxErr       Wt(A-DIIS)
 <Dec01-2018> <15:53:22>      1      2.87714958      1.71000809
 <Dec01-2018> <15:53:22>      2      0.44198826      0.15553146    100.0
 <Dec01-2018> <15:53:22>      3      0.15729069      0.03945051    100.0
 <Dec01-2018> <15:53:23>      4      0.24264921      0.08990562    100.0
 <Dec01-2018> <15:53:23>      5      0.09801176      0.04545873     44.9
 <Dec01-2018> <15:53:24>      6      0.06348684      0.03016313     29.5
 <Dec01-2018> <15:53:24>      7      0.00791881      0.00360538      2.6
 <Dec01-2018> <15:53:24>      8      0.00074924      0.00034347      0.0
 <Dec01-2018> <15:53:25>      9      0.00000710      0.00000252      0.0
 <Dec01-2018> <15:53:25>     10      0.00000087      0.00000041      0.0
 <Dec01-2018> <15:53:25>  SCF converged
 <Dec01-2018> <15:53:25>     11      0.00000002      0.00000001      0.0
 <Dec01-2018> <15:53:25>  >>>> TOTEN
 <Dec01-2018> <15:53:26>  >>>> POPAN
 <Dec01-2018> <15:53:26>  >>>> DEBYE
 <Dec01-2018> <15:53:26>  >>>> AMETS
 <Dec01-2018> <15:53:26>   Bond Energy          -0.53963777 a.u.
 <Dec01-2018> <15:53:26>   Bond Energy         -14.68429099 eV
 <Dec01-2018> <15:53:26>   Bond Energy        -338.63       kcal/mol
 <Dec01-2018> <15:53:26>  >>>> POPUL
 <Dec01-2018> <15:53:26>  >>>> ENGRAD
 <Dec01-2018> <15:53:27>  >>>> ENHESS
 <Dec01-2018> <15:53:27>  === NUCLEUS:     1
 <Dec01-2018> <15:53:35>  === NUCLEUS:     2
 <Dec01-2018> <15:53:41>  >>>> CALC_HESS_PMAT
 <Dec01-2018> <15:53:42>  >>>> CALC_HESS_WMAT
 <Dec01-2018> <15:53:42>  NORMAL TERMINATION
 <Dec01-2018> <15:53:42>  END
