

 Parallel Execution: Process Information
 ==============================================================================
 Rank   Node Name                              NodeID   MyNodeRank  NodeMaster
    0   comp-sc-0216.acib.production.int          0          0          0
    1   comp-sc-0216.acib.production.int          0          1         -1
    2   comp-sc-0216.acib.production.int          0          2         -1
    3   comp-sc-0216.acib.production.int          0          3         -1
    4   comp-sc-0216.acib.production.int          0          4         -1
    5   comp-sc-0216.acib.production.int          0          5         -1
    6   comp-sc-0216.acib.production.int          0          6         -1
    7   comp-sc-0216.acib.production.int          0          7         -1
    8   comp-sc-0216.acib.production.int          0          8         -1
    9   comp-sc-0216.acib.production.int          0          9         -1
   10   comp-sc-0216.acib.production.int          1          0          1
   11   comp-sc-0216.acib.production.int          1          1         -1
   12   comp-sc-0216.acib.production.int          1          2         -1
   13   comp-sc-0216.acib.production.int          1          3         -1
   14   comp-sc-0216.acib.production.int          1          4         -1
   15   comp-sc-0216.acib.production.int          1          5         -1
   16   comp-sc-0216.acib.production.int          1          6         -1
   17   comp-sc-0216.acib.production.int          1          7         -1
   18   comp-sc-0216.acib.production.int          1          8         -1
   19   comp-sc-0216.acib.production.int          1          9         -1
 ==============================================================================


May use up to 61385MB of RAM as shared memory on node 0
May use up to 61513MB of RAM as shared memory on node 1

 *******************************************************************************
 *                                                                             *
 *  --------------------------------                                           *
 *   Amsterdam Modeling Suite (AMS)              2021.204                      *
 *  --------------------------------                                           *
 *                                               r                             *
 *                                                                             *
 *                                                                             *
 *                              =================                              *
 *                              |               |                              *
 *                              |     A M S     |                              *
 *                              |               |                              *
 *                              =================                              *
 *                                                                             *
 *                                                                             *
 *   Online information and documentation:  https://www.scm.com/support/       *
 *   E-mail:  support@scm.com   info@scm.com                                   *
 *                                                                             *
 *   Scientific publications using AMS results must be properly referenced     *
 *   See the User Manuals (or the web site) for recommended citations          *
 *   The terms and conditions of the End User License Agreement apply to       *
 *   the use of AMS, https://www.scm.com/license-terms/                        *
 *                                                                             *
 **********************  x86_64_linux_intel / intelmpi  ************************
 
 Licensed to: Prof. Lasse Jensen / Penn State University / University Park / PA  / USA 2022-06-20 12:58:48
 SCM User ID: u8493
  
 AMS 2021.204  RunTime: Apr19-2023 06:46:05  ShM Nodes: 2  Procs: 20

 AMS jobname: ams
 AMS jobid  : 624754529

 Start   directory: /gpfs/scratch/ijc5167/scratch_adf/freq_Ag8_co2_Dfukxg/
 Results directory: /gpfs/scratch/ijc5167/scratch_adf/freq_Ag8_co2_Dfukxg/ams.results/
 Scratch directory: /gpfs/scratch/ijc5167/scratch_adf/freq_Ag8_co2_Dfukxg/amstmp_ams_kid0.624754529/


 Communication costs MPI_COMM_WORLD:      3.166 usec per message,   0.0104 usec per 8-byte item
 Communication costs for intra-node:      1.780 usec per message,   0.0089 usec per 8-byte item

 RNG seed: -863572907 -1449429978 -1922936019 -1160192226 771219516 1230452092 -2120896443 134097592



                     *************************************************************************
                     *  ADF 2021.204  RunTime: Apr19-2023 06:46:06  ShM Nodes: 2  Procs: 20  *
                     *************************************************************************
  
       ****************************
       * SINGLE POINT CALCULATION *
       ****************************
 
--------
Geometry
--------
Formula: CAg8O
Atoms
  Index Symbol   x (angstrom)   y (angstrom)   z (angstrom)
      1      C     0.45388542    -1.19792064     4.04740081
      2      O     1.09381321    -0.80960522     4.91837053
      3     Ag     0.00000000    -0.58891838     1.90012108
      4     Ag     1.90012108     0.58891838     0.00000000
      5     Ag     0.00000000     2.13289843     1.47110775
      6     Ag    -1.90012108     0.58891838     0.00000000
      7     Ag     0.00000000     2.13289843    -1.47110775
      8     Ag    -1.47110775    -2.13289843     0.00000000
      9     Ag    -0.01565961    -0.56413537    -1.92550944
     10     Ag     1.44694819    -2.12704570    -0.03728843
 
Total System Charge             0.00000
 
 
----------------
ADF Engine Input
----------------
 
 Relativity
 Level Scalar
 End
 basis
 Type TZP
 core Large
 end
 symmetry nosym
 numericalquality Normal
 xc
 GGA Becke88 Perdew86
 DISPERSION Grimme3 BJDAMP
 end
 

 Title: *** (NO TITLE) ***

 *** adf ***



 ===========================
 A T T A C H E D   F I L E S
 ===========================
  



 ===============================
 M O D E L   P A R A M E T E R S
 ===============================
  
 DENSITY FUNCTIONAL POTENTIAL (scf)
    LDA:                               VWN                                      
    Gradient Corrections:              Becke88 Perdew86                        == Not Default ==

 SPIN  (restricted / unrestr.)
    Molecule:                          Restricted                               
    Fragments:                         Restricted                               

 OTHER ASPECTS
    Relativistic Corrections:          scalar (ZORA,MAPA)                       

    Nuclear Charge Density Model:      Point Charge Nuclei                      
    Core Treatment:                    Frozen Orbital(s)                        

    Hyperfine or Zeeman Interaction:   ---                                      

 Settings for Grimme D3 dispersion correction

      damping                        BJ
      s6                          1.000
      s8                          3.282
      a1                          0.395
      a2                          4.852

 Other (technical) parameters

      alpha                      14.000
      version                         4
 


 Fragment File(s)
 ----------------
 C:
         file : /gpfs/scratch/ijc5167/scratch_adf/freq_Ag8_co2_Dfukxg/ams.results/t21.4944F16E.C
         jobid: 0
         title: Carbon (TZP, 1s frozen)
 O:
         file : /gpfs/scratch/ijc5167/scratch_adf/freq_Ag8_co2_Dfukxg/ams.results/t21.22046D0F.O
         jobid: 0
         title: Oxygen (TZP, 1s frozen)
 Ag:
         file : /gpfs/scratch/ijc5167/scratch_adf/freq_Ag8_co2_Dfukxg/ams.results/t21.77C18EBC.Ag
         jobid: 0
         title: Silver (TZP, 4p frozen)



 ===============
 G E O M E T R Y  ***  3D  Molecule  ***
 ===============
  

 ATOMS
 =====                            X Y Z                    CHARGE
                                (Angstrom)             Nucl     +Core       At.Mass
                       --------------------------    ----------------       -------
    1  C               0.4539   -1.1979    4.0474      6.00      4.00       12.0000
    2  O               1.0938   -0.8096    4.9184      8.00      6.00       15.9949
    3  Ag              0.0000   -0.5889    1.9001     47.00     11.00      106.9051
    4  Ag              1.9001    0.5889    0.0000     47.00     11.00      106.9051
    5  Ag              0.0000    2.1329    1.4711     47.00     11.00      106.9051
    6  Ag             -1.9001    0.5889    0.0000     47.00     11.00      106.9051
    7  Ag              0.0000    2.1329   -1.4711     47.00     11.00      106.9051
    8  Ag             -1.4711   -2.1329    0.0000     47.00     11.00      106.9051
    9  Ag             -0.0157   -0.5641   -1.9255     47.00     11.00      106.9051
   10  Ag              1.4469   -2.1270   -0.0373     47.00     11.00      106.9051


 FRAGMENTS
 =========                                     Atoms in this Fragment     Cart. coord.s (Angstrom)
                                               -------------------------------------------------------
    1  C                                                 1  C            0.4539   -1.1979    4.0474
    2  O                                                 2  O            1.0938   -0.8096    4.9184
    3  Ag                                                3  Ag           0.0000   -0.5889    1.9001
    4  Ag                                                4  Ag           1.9001    0.5889    0.0000
    5  Ag                                                5  Ag           0.0000    2.1329    1.4711
    6  Ag                                                6  Ag          -1.9001    0.5889    0.0000
    7  Ag                                                7  Ag           0.0000    2.1329   -1.4711
    8  Ag                                                8  Ag          -1.4711   -2.1329    0.0000
    9  Ag                                                9  Ag          -0.0157   -0.5641   -1.9255
   10  Ag                                               10  Ag           1.4469   -2.1270   -0.0373


 Interatomic Distance Matrix (Angstrom)
 --------------------------------------

   1)     0.000
   2)     1.148   0.000
   3)     2.278   3.218   0.000
   4)     4.655   5.177   2.934   0.000
   5)     4.235   4.662   2.755   2.856   0.000
   6)     5.012   5.925   2.934   3.800   2.856   0.000
   7)     6.462   7.119   4.333   2.856   2.942   2.856   0.000
   8)     4.578   5.703   2.856   4.333   4.746   2.755   4.746   0.000
   9)     6.025   6.938   3.826   2.951   4.337   2.931   2.735   2.879   0.000
  10)     4.305   5.140   2.866   2.754   4.745   4.311   4.722   2.918   2.854   0.000

 Min. Distance =    1.1484
 Max. Distance =    7.1190



 =====================================
 S Y M M E T R Y ,   E L E C T R O N S
 =====================================
  
 Symmetry: NOSYM

 Irreducible Representations, including subspecies
 -------------------------------------------------
 A


 Configuration of Valence Electrons
 ==================================
 ( determined in the SCF procedure )

 Total:   98

 Net Charge: 0 (Nuclei minus Electrons)

 Aufbau principle for MO occupations will be applied through SCF cycle no.     150
 Thereafter, the program will assign electrons to MOs that are spatially
 similar to the occupied MOs in a "reference" cycle ("KeepOrbitals").
 The reference cycle is always the PREVIOUS cycle: it will evolve with
 the SCF procedure.
1
 ***************************************************************************************************



                                      ****************************************
                                      *  B U I L D : (Fragments, Functions)  *
                                      ****************************************
  



 =======
 S F O s  ***  (Symmetrized Fragment Orbitals)  ***
 =======
  
 SFOs are linear combinations of (valence) Fragment Orbitals (FOs), such that the SFOs transform as the
 irreducible representations of the (molecular) symmetry group. Each SFO is therefore characterized by
 an irrep of the molecule and by a few (or only one) generating FOs.
 The SFOs constitute a symmetry-adapted basis for the Fock matrix. The MO eigenvector coefficients in
 this basis provide a direct interpretation of the MOs in terms of Frontier Orbital Theory.

 The SFOs are combined with auxiliary Core Functions (CFs) to ensure orthogonalization on the (frozen)
 Core Orbitals (COs). The Core-orthogonalized SFOs (CSFOs) constitute the true Fock basis.

 The FOs, and hence also the (C)SFOs are combinations of the elementary basis functions (BAS). The basis
 functions that participate in the description of the SFOs depend on the irrep. The indices of the
 involved functions are printed below for each irrep.
 (The complete list of primitive basis functions is printed in another section)

 Total nr. of (C)SFOs (summation over all irreps) :   202

 NOTE: a (C)SFO that is defined as a combination of more than one FO is usually NOT normalized.



                                       === A ===
 Nr. of SFOs :  202
 Cartesian basis functions that participate in this irrep (total number =   382) :
      1    20    39    40    41    42    43    46    49    44
     47    50    45    48    51    52    53    54    55    56
     57    82    83    84    85    86    89    92    87    90
     93    88    91    94    95    96    97    98    99   100
    125   126   127   128   129   132   135   130   133   136
    131   134   137   138   139   140   141   142   143   168
    169   170   171   172   175   178   173   176   179   174
    177   180   181   182   183   184   185   186   211   212
    213   214   215   218   221   216   219   222   217   220
    223   224   225   226   227   228   229   254   255   256
    257   258   261   264   259   262   265   260   263   266
    267   268   269   270   271   272   297   298   299   300
    301   304   307   302   305   308   303   306   309   310
    311   312   313   314   315   340   341   342   343   344
    347   350   345   348   351   346   349   352   353   354
    355   356   357   358     2     3     4     5     8    11
      6     9    12     7    10    13    14    15    16    17
     18    19    21    22    23    24    27    30    25    28
     31    26    29    32    33    34    35    36    37    38
     58    59    60    79    80    81    61    67    73    62
     68    74    63    69    75    64    70    76    65    71
     77    66    72    78   101   102   103   122   123   124
    104   110   116   105   111   117   106   112   118   107
    113   119   108   114   120   109   115   121   144   145
    146   165   166   167   147   153   159   148   154   160
    149   155   161   150   156   162   151   157   163   152
    158   164   187   188   189   208   209   210   190   196
    202   191   197   203   192   198   204   193   199   205
    194   200   206   195   201   207   230   231   232   251
    252   253   233   239   245   234   240   246   235   241
    247   236   242   248   237   243   249   238   244   250
    273   274   275   294   295   296   276   282   288   277
    283   289   278   284   290   279   285   291   280   286
    292   281   287   293   316   317   318   337   338   339
    319   325   331   320   326   332   321   327   333   322
    328   334   323   329   335   324   330   336   359   360
    361   380   381   382   362   368   374   363   369   375
    364   370   376   365   371   377   366   372   378   367
    373   379

    SFO  (index         Fragment          Generating    Expansion in Fragment Orbitals
  indx  incl.CFs)   Occup   Orb.Energy   FragmentType  Coeff.   Orbital     on Fragment
 --------------------------------------------------------------------------------------
     1     155      2.000      -0.511 au  C             1.00      1 S               1
                        (     -13.915 eV)
     2     156       --         0.428 au  C             1.00      2 S               1
                        (      11.654 eV)
     3     157       --         9.927 au  C             1.00      3 S               1
                        (     270.139 eV)
     4     158      0.667      -0.199 au  C             1.00      1 P:x             1
                        (      -5.426 eV)
     5     159       --         0.173 au  C             1.00      2 P:x             1
                        (       4.695 eV)
     6     160       --         2.022 au  C             1.00      3 P:x             1
                        (      55.030 eV)
     7     161      0.667      -0.199 au  C             1.00      1 P:y             1
                        (      -5.426 eV)
     8     162       --         0.173 au  C             1.00      2 P:y             1
                        (       4.695 eV)
     9     163       --         2.022 au  C             1.00      3 P:y             1
                        (      55.030 eV)
    10     164      0.667      -0.199 au  C             1.00      1 P:z             1
                        (      -5.426 eV)
    11     165       --         0.173 au  C             1.00      2 P:z             1
                        (       4.695 eV)
    12     166       --         2.022 au  C             1.00      3 P:z             1
                        (      55.030 eV)
    13     167       --         1.231 au  C             1.00      1 D:z2            1
                        (      33.508 eV)
    14     168       --         1.231 au  C             1.00      1 D:x2-y2         1
                        (      33.508 eV)
    15     169       --         1.231 au  C             1.00      1 D:xy            1
                        (      33.508 eV)
    16     170       --         1.231 au  C             1.00      1 D:xz            1
                        (      33.508 eV)
    17     171       --         1.231 au  C             1.00      1 D:yz            1
                        (      33.508 eV)
    18     172      2.000      -0.887 au  O             1.00      1 S               2
                        (     -24.141 eV)
    19     173       --         0.898 au  O             1.00      2 S               2
                        (      24.443 eV)
    20     174       --        29.557 au  O             1.00      3 S               2
                        (     804.274 eV)
    21     175      1.333      -0.338 au  O             1.00      1 P:x             2
                        (      -9.204 eV)
    22     176       --         0.354 au  O             1.00      2 P:x             2
                        (       9.644 eV)
    23     177       --         3.829 au  O             1.00      3 P:x             2
                        (     104.202 eV)
    24     178      1.333      -0.338 au  O             1.00      1 P:y             2
                        (      -9.204 eV)
    25     179       --         0.354 au  O             1.00      2 P:y             2
                        (       9.644 eV)
    26     180       --         3.829 au  O             1.00      3 P:y             2
                        (     104.202 eV)
    27     181      1.333      -0.338 au  O             1.00      1 P:z             2
                        (      -9.204 eV)
    28     182       --         0.354 au  O             1.00      2 P:z             2
                        (       9.644 eV)
    29     183       --         3.829 au  O             1.00      3 P:z             2
                        (     104.202 eV)
    30     184       --         1.061 au  O             1.00      1 D:z2            2
                        (      28.861 eV)
    31     185       --         1.061 au  O             1.00      1 D:x2-y2         2
                        (      28.861 eV)
    32     186       --         1.061 au  O             1.00      1 D:xy            2
                        (      28.861 eV)
    33     187       --         1.061 au  O             1.00      1 D:xz            2
                        (      28.861 eV)
    34     188       --         1.061 au  O             1.00      1 D:yz            2
                        (      28.861 eV)
    35     189      1.000      -0.167 au  Ag            1.00      1 S               3
                        (      -4.550 eV)
    36     190       --         0.050 au  Ag            1.00      2 S               3
                        (       1.356 eV)
    37     191       --         0.590 au  Ag            1.00      3 S               3
                        (      16.061 eV)
    38     192       --         0.013 au  Ag            1.00      1 P:x             3
                        (       0.354 eV)
    39     193       --         0.013 au  Ag            1.00      1 P:y             3
                        (       0.354 eV)
    40     194       --         0.013 au  Ag            1.00      1 P:z             3
                        (       0.354 eV)
    41     195      2.000      -0.277 au  Ag            1.00      1 D:z2            3
                        (      -7.546 eV)
    42     196       --         0.294 au  Ag            1.00      2 D:z2            3
                        (       8.000 eV)
    43     197       --         2.230 au  Ag            1.00      3 D:z2            3
                        (      60.692 eV)
    44     198      2.000      -0.277 au  Ag            1.00      1 D:x2-y2         3
                        (      -7.546 eV)
    45     199       --         0.294 au  Ag            1.00      2 D:x2-y2         3
                        (       8.000 eV)
    46     200       --         2.230 au  Ag            1.00      3 D:x2-y2         3
                        (      60.692 eV)
    47     201      2.000      -0.277 au  Ag            1.00      1 D:xy            3
                        (      -7.546 eV)
    48     202       --         0.294 au  Ag            1.00      2 D:xy            3
                        (       8.000 eV)
    49     203       --         2.230 au  Ag            1.00      3 D:xy            3
                        (      60.692 eV)
    50     204      2.000      -0.277 au  Ag            1.00      1 D:xz            3
                        (      -7.546 eV)
    51     205       --         0.294 au  Ag            1.00      2 D:xz            3
                        (       8.000 eV)
    52     206       --         2.230 au  Ag            1.00      3 D:xz            3
                        (      60.692 eV)
    53     207      2.000      -0.277 au  Ag            1.00      1 D:yz            3
                        (      -7.546 eV)
    54     208       --         0.294 au  Ag            1.00      2 D:yz            3
                        (       8.000 eV)
    55     209       --         2.230 au  Ag            1.00      3 D:yz            3
                        (      60.692 eV)
    56     210      1.000      -0.167 au  Ag            1.00      1 S               4
                        (      -4.550 eV)
    57     211       --         0.050 au  Ag            1.00      2 S               4
                        (       1.356 eV)
    58     212       --         0.590 au  Ag            1.00      3 S               4
                        (      16.061 eV)
    59     213       --         0.013 au  Ag            1.00      1 P:x             4
                        (       0.354 eV)
    60     214       --         0.013 au  Ag            1.00      1 P:y             4
                        (       0.354 eV)
    61     215       --         0.013 au  Ag            1.00      1 P:z             4
                        (       0.354 eV)
    62     216      2.000      -0.277 au  Ag            1.00      1 D:z2            4
                        (      -7.546 eV)
    63     217       --         0.294 au  Ag            1.00      2 D:z2            4
                        (       8.000 eV)
    64     218       --         2.230 au  Ag            1.00      3 D:z2            4
                        (      60.692 eV)
    65     219      2.000      -0.277 au  Ag            1.00      1 D:x2-y2         4
                        (      -7.546 eV)
    66     220       --         0.294 au  Ag            1.00      2 D:x2-y2         4
                        (       8.000 eV)
    67     221       --         2.230 au  Ag            1.00      3 D:x2-y2         4
                        (      60.692 eV)
    68     222      2.000      -0.277 au  Ag            1.00      1 D:xy            4
                        (      -7.546 eV)
    69     223       --         0.294 au  Ag            1.00      2 D:xy            4
                        (       8.000 eV)
    70     224       --         2.230 au  Ag            1.00      3 D:xy            4
                        (      60.692 eV)
    71     225      2.000      -0.277 au  Ag            1.00      1 D:xz            4
                        (      -7.546 eV)
    72     226       --         0.294 au  Ag            1.00      2 D:xz            4
                        (       8.000 eV)
    73     227       --         2.230 au  Ag            1.00      3 D:xz            4
                        (      60.692 eV)
    74     228      2.000      -0.277 au  Ag            1.00      1 D:yz            4
                        (      -7.546 eV)
    75     229       --         0.294 au  Ag            1.00      2 D:yz            4
                        (       8.000 eV)
    76     230       --         2.230 au  Ag            1.00      3 D:yz            4
                        (      60.692 eV)
    77     231      1.000      -0.167 au  Ag            1.00      1 S               5
                        (      -4.550 eV)
    78     232       --         0.050 au  Ag            1.00      2 S               5
                        (       1.356 eV)
    79     233       --         0.590 au  Ag            1.00      3 S               5
                        (      16.061 eV)
    80     234       --         0.013 au  Ag            1.00      1 P:x             5
                        (       0.354 eV)
    81     235       --         0.013 au  Ag            1.00      1 P:y             5
                        (       0.354 eV)
    82     236       --         0.013 au  Ag            1.00      1 P:z             5
                        (       0.354 eV)
    83     237      2.000      -0.277 au  Ag            1.00      1 D:z2            5
                        (      -7.546 eV)
    84     238       --         0.294 au  Ag            1.00      2 D:z2            5
                        (       8.000 eV)
    85     239       --         2.230 au  Ag            1.00      3 D:z2            5
                        (      60.692 eV)
    86     240      2.000      -0.277 au  Ag            1.00      1 D:x2-y2         5
                        (      -7.546 eV)
    87     241       --         0.294 au  Ag            1.00      2 D:x2-y2         5
                        (       8.000 eV)
    88     242       --         2.230 au  Ag            1.00      3 D:x2-y2         5
                        (      60.692 eV)
    89     243      2.000      -0.277 au  Ag            1.00      1 D:xy            5
                        (      -7.546 eV)
    90     244       --         0.294 au  Ag            1.00      2 D:xy            5
                        (       8.000 eV)
    91     245       --         2.230 au  Ag            1.00      3 D:xy            5
                        (      60.692 eV)
    92     246      2.000      -0.277 au  Ag            1.00      1 D:xz            5
                        (      -7.546 eV)
    93     247       --         0.294 au  Ag            1.00      2 D:xz            5
                        (       8.000 eV)
    94     248       --         2.230 au  Ag            1.00      3 D:xz            5
                        (      60.692 eV)
    95     249      2.000      -0.277 au  Ag            1.00      1 D:yz            5
                        (      -7.546 eV)
    96     250       --         0.294 au  Ag            1.00      2 D:yz            5
                        (       8.000 eV)
    97     251       --         2.230 au  Ag            1.00      3 D:yz            5
                        (      60.692 eV)
    98     252      1.000      -0.167 au  Ag            1.00      1 S               6
                        (      -4.550 eV)
    99     253       --         0.050 au  Ag            1.00      2 S               6
                        (       1.356 eV)
   100     254       --         0.590 au  Ag            1.00      3 S               6
                        (      16.061 eV)
   101     255       --         0.013 au  Ag            1.00      1 P:x             6
                        (       0.354 eV)
   102     256       --         0.013 au  Ag            1.00      1 P:y             6
                        (       0.354 eV)
   103     257       --         0.013 au  Ag            1.00      1 P:z             6
                        (       0.354 eV)
   104     258      2.000      -0.277 au  Ag            1.00      1 D:z2            6
                        (      -7.546 eV)
   105     259       --         0.294 au  Ag            1.00      2 D:z2            6
                        (       8.000 eV)
   106     260       --         2.230 au  Ag            1.00      3 D:z2            6
                        (      60.692 eV)
   107     261      2.000      -0.277 au  Ag            1.00      1 D:x2-y2         6
                        (      -7.546 eV)
   108     262       --         0.294 au  Ag            1.00      2 D:x2-y2         6
                        (       8.000 eV)
   109     263       --         2.230 au  Ag            1.00      3 D:x2-y2         6
                        (      60.692 eV)
   110     264      2.000      -0.277 au  Ag            1.00      1 D:xy            6
                        (      -7.546 eV)
   111     265       --         0.294 au  Ag            1.00      2 D:xy            6
                        (       8.000 eV)
   112     266       --         2.230 au  Ag            1.00      3 D:xy            6
                        (      60.692 eV)
   113     267      2.000      -0.277 au  Ag            1.00      1 D:xz            6
                        (      -7.546 eV)
   114     268       --         0.294 au  Ag            1.00      2 D:xz            6
                        (       8.000 eV)
   115     269       --         2.230 au  Ag            1.00      3 D:xz            6
                        (      60.692 eV)
   116     270      2.000      -0.277 au  Ag            1.00      1 D:yz            6
                        (      -7.546 eV)
   117     271       --         0.294 au  Ag            1.00      2 D:yz            6
                        (       8.000 eV)
   118     272       --         2.230 au  Ag            1.00      3 D:yz            6
                        (      60.692 eV)
   119     273      1.000      -0.167 au  Ag            1.00      1 S               7
                        (      -4.550 eV)
   120     274       --         0.050 au  Ag            1.00      2 S               7
                        (       1.356 eV)
   121     275       --         0.590 au  Ag            1.00      3 S               7
                        (      16.061 eV)
   122     276       --         0.013 au  Ag            1.00      1 P:x             7
                        (       0.354 eV)
   123     277       --         0.013 au  Ag            1.00      1 P:y             7
                        (       0.354 eV)
   124     278       --         0.013 au  Ag            1.00      1 P:z             7
                        (       0.354 eV)
   125     279      2.000      -0.277 au  Ag            1.00      1 D:z2            7
                        (      -7.546 eV)
   126     280       --         0.294 au  Ag            1.00      2 D:z2            7
                        (       8.000 eV)
   127     281       --         2.230 au  Ag            1.00      3 D:z2            7
                        (      60.692 eV)
   128     282      2.000      -0.277 au  Ag            1.00      1 D:x2-y2         7
                        (      -7.546 eV)
   129     283       --         0.294 au  Ag            1.00      2 D:x2-y2         7
                        (       8.000 eV)
   130     284       --         2.230 au  Ag            1.00      3 D:x2-y2         7
                        (      60.692 eV)
   131     285      2.000      -0.277 au  Ag            1.00      1 D:xy            7
                        (      -7.546 eV)
   132     286       --         0.294 au  Ag            1.00      2 D:xy            7
                        (       8.000 eV)
   133     287       --         2.230 au  Ag            1.00      3 D:xy            7
                        (      60.692 eV)
   134     288      2.000      -0.277 au  Ag            1.00      1 D:xz            7
                        (      -7.546 eV)
   135     289       --         0.294 au  Ag            1.00      2 D:xz            7
                        (       8.000 eV)
   136     290       --         2.230 au  Ag            1.00      3 D:xz            7
                        (      60.692 eV)
   137     291      2.000      -0.277 au  Ag            1.00      1 D:yz            7
                        (      -7.546 eV)
   138     292       --         0.294 au  Ag            1.00      2 D:yz            7
                        (       8.000 eV)
   139     293       --         2.230 au  Ag            1.00      3 D:yz            7
                        (      60.692 eV)
   140     294      1.000      -0.167 au  Ag            1.00      1 S               8
                        (      -4.550 eV)
   141     295       --         0.050 au  Ag            1.00      2 S               8
                        (       1.356 eV)
   142     296       --         0.590 au  Ag            1.00      3 S               8
                        (      16.061 eV)
   143     297       --         0.013 au  Ag            1.00      1 P:x             8
                        (       0.354 eV)
   144     298       --         0.013 au  Ag            1.00      1 P:y             8
                        (       0.354 eV)
   145     299       --         0.013 au  Ag            1.00      1 P:z             8
                        (       0.354 eV)
   146     300      2.000      -0.277 au  Ag            1.00      1 D:z2            8
                        (      -7.546 eV)
   147     301       --         0.294 au  Ag            1.00      2 D:z2            8
                        (       8.000 eV)
   148     302       --         2.230 au  Ag            1.00      3 D:z2            8
                        (      60.692 eV)
   149     303      2.000      -0.277 au  Ag            1.00      1 D:x2-y2         8
                        (      -7.546 eV)
   150     304       --         0.294 au  Ag            1.00      2 D:x2-y2         8
                        (       8.000 eV)
   151     305       --         2.230 au  Ag            1.00      3 D:x2-y2         8
                        (      60.692 eV)
   152     306      2.000      -0.277 au  Ag            1.00      1 D:xy            8
                        (      -7.546 eV)
   153     307       --         0.294 au  Ag            1.00      2 D:xy            8
                        (       8.000 eV)
   154     308       --         2.230 au  Ag            1.00      3 D:xy            8
                        (      60.692 eV)
   155     309      2.000      -0.277 au  Ag            1.00      1 D:xz            8
                        (      -7.546 eV)
   156     310       --         0.294 au  Ag            1.00      2 D:xz            8
                        (       8.000 eV)
   157     311       --         2.230 au  Ag            1.00      3 D:xz            8
                        (      60.692 eV)
   158     312      2.000      -0.277 au  Ag            1.00      1 D:yz            8
                        (      -7.546 eV)
   159     313       --         0.294 au  Ag            1.00      2 D:yz            8
                        (       8.000 eV)
   160     314       --         2.230 au  Ag            1.00      3 D:yz            8
                        (      60.692 eV)
   161     315      1.000      -0.167 au  Ag            1.00      1 S               9
                        (      -4.550 eV)
   162     316       --         0.050 au  Ag            1.00      2 S               9
                        (       1.356 eV)
   163     317       --         0.590 au  Ag            1.00      3 S               9
                        (      16.061 eV)
   164     318       --         0.013 au  Ag            1.00      1 P:x             9
                        (       0.354 eV)
   165     319       --         0.013 au  Ag            1.00      1 P:y             9
                        (       0.354 eV)
   166     320       --         0.013 au  Ag            1.00      1 P:z             9
                        (       0.354 eV)
   167     321      2.000      -0.277 au  Ag            1.00      1 D:z2            9
                        (      -7.546 eV)
   168     322       --         0.294 au  Ag            1.00      2 D:z2            9
                        (       8.000 eV)
   169     323       --         2.230 au  Ag            1.00      3 D:z2            9
                        (      60.692 eV)
   170     324      2.000      -0.277 au  Ag            1.00      1 D:x2-y2         9
                        (      -7.546 eV)
   171     325       --         0.294 au  Ag            1.00      2 D:x2-y2         9
                        (       8.000 eV)
   172     326       --         2.230 au  Ag            1.00      3 D:x2-y2         9
                        (      60.692 eV)
   173     327      2.000      -0.277 au  Ag            1.00      1 D:xy            9
                        (      -7.546 eV)
   174     328       --         0.294 au  Ag            1.00      2 D:xy            9
                        (       8.000 eV)
   175     329       --         2.230 au  Ag            1.00      3 D:xy            9
                        (      60.692 eV)
   176     330      2.000      -0.277 au  Ag            1.00      1 D:xz            9
                        (      -7.546 eV)
   177     331       --         0.294 au  Ag            1.00      2 D:xz            9
                        (       8.000 eV)
   178     332       --         2.230 au  Ag            1.00      3 D:xz            9
                        (      60.692 eV)
   179     333      2.000      -0.277 au  Ag            1.00      1 D:yz            9
                        (      -7.546 eV)
   180     334       --         0.294 au  Ag            1.00      2 D:yz            9
                        (       8.000 eV)
   181     335       --         2.230 au  Ag            1.00      3 D:yz            9
                        (      60.692 eV)
   182     336      1.000      -0.167 au  Ag            1.00      1 S              10
                        (      -4.550 eV)
   183     337       --         0.050 au  Ag            1.00      2 S              10
                        (       1.356 eV)
   184     338       --         0.590 au  Ag            1.00      3 S              10
                        (      16.061 eV)
   185     339       --         0.013 au  Ag            1.00      1 P:x            10
                        (       0.354 eV)
   186     340       --         0.013 au  Ag            1.00      1 P:y            10
                        (       0.354 eV)
   187     341       --         0.013 au  Ag            1.00      1 P:z            10
                        (       0.354 eV)
   188     342      2.000      -0.277 au  Ag            1.00      1 D:z2           10
                        (      -7.546 eV)
   189     343       --         0.294 au  Ag            1.00      2 D:z2           10
                        (       8.000 eV)
   190     344       --         2.230 au  Ag            1.00      3 D:z2           10
                        (      60.692 eV)
   191     345      2.000      -0.277 au  Ag            1.00      1 D:x2-y2        10
                        (      -7.546 eV)
   192     346       --         0.294 au  Ag            1.00      2 D:x2-y2        10
                        (       8.000 eV)
   193     347       --         2.230 au  Ag            1.00      3 D:x2-y2        10
                        (      60.692 eV)
   194     348      2.000      -0.277 au  Ag            1.00      1 D:xy           10
                        (      -7.546 eV)
   195     349       --         0.294 au  Ag            1.00      2 D:xy           10
                        (       8.000 eV)
   196     350       --         2.230 au  Ag            1.00      3 D:xy           10
                        (      60.692 eV)
   197     351      2.000      -0.277 au  Ag            1.00      1 D:xz           10
                        (      -7.546 eV)
   198     352       --         0.294 au  Ag            1.00      2 D:xz           10
                        (       8.000 eV)
   199     353       --         2.230 au  Ag            1.00      3 D:xz           10
                        (      60.692 eV)
   200     354      2.000      -0.277 au  Ag            1.00      1 D:yz           10
                        (      -7.546 eV)
   201     355       --         0.294 au  Ag            1.00      2 D:yz           10
                        (       8.000 eV)
   202     356       --         2.230 au  Ag            1.00      3 D:yz           10
                        (      60.692 eV)



 ================================
 (Slater-type)  F U N C T I O N S  ***  (Basis and Fit)  ***
 ================================
  

 Atom Type    1  (C)
 ==============

 Valence Basis Sets:   8
 -----------------------
   1 S    5.400000
   2 S    1.280000
   2 S    2.100000
   2 S    4.600000
   2 P    0.820000
   2 P    1.480000
   2 P    2.940000
   3 D    2.200000

 Frozen Core Shells
 ------------------
    S:  1

 Atom Type    2  (O)
 ==============

 Valence Basis Sets:   8
 -----------------------
   1 S    7.360000
   2 S    1.720000
   2 S    2.880000
   2 S    7.580000
   2 P    1.120000
   2 P    2.080000
   2 P    4.080000
   3 D    2.000000

 Frozen Core Shells
 ------------------
    S:  1

 Atom Type    3  (Ag)
 ==============

 Valence Basis Sets:  15
 -----------------------
   1 S   30.800000
   2 S   20.300000
   3 S    9.550000
   4 S    5.950000
   2 P   21.100000
   3 P   10.100000
   4 P    4.450000
   3 D   11.650000
   5 S    2.600000
   5 S    1.550000
   5 S    0.950000
   4 D    4.750000
   4 D    2.600000
   4 D    1.380000
   5 P    1.550000

 Frozen Core Shells
 ------------------
    S:  4
    P:  3
    D:  1


 BAS: List of all Elementary Cartesian Basis Functions
 =====================================================

 The numbering in the list below (to the right of the function characteristics) is referred
 to in print-outs of MO eigenvectors and Mulliken populations in the BAS representation
 (as contrasted to the SFO representation).

 Notes:
 1. The functions are characterized by a polynomial prefactor (powers of x,y,z and r) and
    an exponential decay factor alpha.
 2. Since the basis sets are specific for an atom TYPE, the individual functions occur on
    all atoms of that type.
 3. The word 'Core' in the left margin signals that it is a Core Function (CF) : not a
    degree of freedom in the valence set, but only used to ensure orthogonalization of
    the other valence basis functions on the frozen Core Orbitals.


 (power of) X  Y  Z  R     Alpha  on Atom
            ==========     =====     ==========

 C                                    1
                                  ---------------------------------------------------------------------------
    Core    0  0  0  0     5.400      1
            0  0  0  1     1.280      2
            0  0  0  1     2.100      3
            0  0  0  1     4.600      4
            1  0  0  0     0.820      5
            0  1  0  0     0.820      6
            0  0  1  0     0.820      7
            1  0  0  0     1.480      8
            0  1  0  0     1.480      9
            0  0  1  0     1.480     10
            1  0  0  0     2.940     11
            0  1  0  0     2.940     12
            0  0  1  0     2.940     13
            2  0  0  0     2.200     14
            1  1  0  0     2.200     15
            1  0  1  0     2.200     16
            0  2  0  0     2.200     17
            0  1  1  0     2.200     18
            0  0  2  0     2.200     19

 O                                    2
                                  ---------------------------------------------------------------------------
    Core    0  0  0  0     7.360     20
            0  0  0  1     1.720     21
            0  0  0  1     2.880     22
            0  0  0  1     7.580     23
            1  0  0  0     1.120     24
            0  1  0  0     1.120     25
            0  0  1  0     1.120     26
            1  0  0  0     2.080     27
            0  1  0  0     2.080     28
            0  0  1  0     2.080     29
            1  0  0  0     4.080     30
            0  1  0  0     4.080     31
            0  0  1  0     4.080     32
            2  0  0  0     2.000     33
            1  1  0  0     2.000     34
            1  0  1  0     2.000     35
            0  2  0  0     2.000     36
            0  1  1  0     2.000     37
            0  0  2  0     2.000     38

 Ag                                   3    4    5    6    7    8    9   10
                                  ---------------------------------------------------------------------------
    Core    0  0  0  0    30.800     39   82  125  168  211  254  297  340
    Core    0  0  0  1    20.300     40   83  126  169  212  255  298  341
    Core    0  0  0  2     9.550     41   84  127  170  213  256  299  342
    Core    0  0  0  3     5.950     42   85  128  171  214  257  300  343
    Core    1  0  0  0    21.100     43   86  129  172  215  258  301  344
    Core    0  1  0  0    21.100     44   87  130  173  216  259  302  345
    Core    0  0  1  0    21.100     45   88  131  174  217  260  303  346
    Core    1  0  0  1    10.100     46   89  132  175  218  261  304  347
    Core    0  1  0  1    10.100     47   90  133  176  219  262  305  348
    Core    0  0  1  1    10.100     48   91  134  177  220  263  306  349
    Core    1  0  0  2     4.450     49   92  135  178  221  264  307  350
    Core    0  1  0  2     4.450     50   93  136  179  222  265  308  351
    Core    0  0  1  2     4.450     51   94  137  180  223  266  309  352
    Core    2  0  0  0    11.650     52   95  138  181  224  267  310  353
    Core    1  1  0  0    11.650     53   96  139  182  225  268  311  354
    Core    1  0  1  0    11.650     54   97  140  183  226  269  312  355
    Core    0  2  0  0    11.650     55   98  141  184  227  270  313  356
    Core    0  1  1  0    11.650     56   99  142  185  228  271  314  357
    Core    0  0  2  0    11.650     57  100  143  186  229  272  315  358
            0  0  0  4     2.600     58  101  144  187  230  273  316  359
            0  0  0  4     1.550     59  102  145  188  231  274  317  360
            0  0  0  4     0.950     60  103  146  189  232  275  318  361
            2  0  0  1     4.750     61  104  147  190  233  276  319  362
            1  1  0  1     4.750     62  105  148  191  234  277  320  363
            1  0  1  1     4.750     63  106  149  192  235  278  321  364
            0  2  0  1     4.750     64  107  150  193  236  279  322  365
            0  1  1  1     4.750     65  108  151  194  237  280  323  366
            0  0  2  1     4.750     66  109  152  195  238  281  324  367
            2  0  0  1     2.600     67  110  153  196  239  282  325  368
            1  1  0  1     2.600     68  111  154  197  240  283  326  369
            1  0  1  1     2.600     69  112  155  198  241  284  327  370
            0  2  0  1     2.600     70  113  156  199  242  285  328  371
            0  1  1  1     2.600     71  114  157  200  243  286  329  372
            0  0  2  1     2.600     72  115  158  201  244  287  330  373
            2  0  0  1     1.380     73  116  159  202  245  288  331  374
            1  1  0  1     1.380     74  117  160  203  246  289  332  375
            1  0  1  1     1.380     75  118  161  204  247  290  333  376
            0  2  0  1     1.380     76  119  162  205  248  291  334  377
            0  1  1  1     1.380     77  120  163  206  249  292  335  378
            0  0  2  1     1.380     78  121  164  207  250  293  336  379
            1  0  0  3     1.550     79  122  165  208  251  294  337  380
            0  1  0  3     1.550     80  123  166  209  252  295  338  381
            0  0  1  3     1.550     81  124  167  210  253  296  339  382

 Total number of charge fitting functions (nprimf)      1884
 Total number of Cartesian basis functions (naos)        382
 Total number of Cartesian core functions  (ncos)        154

1
 ***************************************************************************************************



                                              ***********************
                                              *  T E C H N I C A L  *
                                              ***********************
  



 =============================================================
 P A R A L L E L I Z A T I O N  and  V E C T O R I Z A T I O N
 =============================================================
  
 Nr of parallel processes:                               20
 Maximum vector length in NumInt loops:                 128



 =====================
 S C F   U P D A T E S
 =====================
  
 Max. nr. of cycles:                               300
 Convergence criterion:                              0.0000010000
   secondary criterion:                              0.0010000000

 Mix parameter (when DIIS does not apply):           0.2000000000
 Mixed ADIIS+SDIIS will be used                  
    Max number of expansion vectors:                10
    Pure ADIIS when Max([F,P]) is above              0.1000000000
    Pure SDIIS when Max([F,P]) is below              0.0010000000
 Automatic ElectronSmearing (in case of problematic SCF convergence) disabled



 =================
 P R E C I S I O N  ***  (General: NumInt, NeglectFunctionTails, ...)  ***
 =================
  

 NumInt:           Target precision:                 4.0000000000
 -------           Initial precision:                4.0000000000
                   Min. precision (optimization):    4.0000000000

 Neglect Functions:          Basis functions:        0.1000000000E-05
 ------------------          Fit functions:          0.1000000000E-05



 ===========================
 L I N E A R   S C A L I N G
 ===========================
  

 Cut-off radii density fit:                        0.1000000000E-07
 Overlap cut-off criterion AO matrix elements:     0.1000000000E-05
 Cut-offs for Coulomb potential and fitted density:0.1000000000E-07
 Cut-off criterion for Coulomb multipole terms:    0.1000000000E-07
 Progressive Convergence parameter:                 0.000000000    
1
 ***************************************************************************************************



                                            ***************************
                                            *  C O M P U T A T I O N  *
                                            ***************************
  

 Number of elements of the density matrix on this node (used, total):      4102     73153



 ===========================================
 Numerical Integration : Fuzzy Cells (Becke)
 ===========================================
  
 Becke grid quality: NORMAL         
  
 Lebedev angular grid order:             min:  11 max:  23
 Nr. of radial points:                   min:  49 max:  83

 Total nr. of points:      97933
 Nr. of blocks:              766
 Block length:               128
 Nr. of dummy points:        115


 Test of Precision of the Numerical Integration Grid
 ===================================================

 Integral of the Total Core Density:                 291.99998435469342
 Relative Error:                                      -5.358E-08



 ========================
 Density Fitting (zlmFit)
 ========================
  
 ZlmFit Fit Quality: NORMAL         
  
 Max L-expansion:                        min:   6 max:   6
 Nr. of radial interpolation points:     min:  42 max:  69



 =====
 S C F  ***  ScaSCF  ***
 =====
  
 Initial density matrix is calculated as sum of fragments

 CYCLE    1
 SCF Error: norm([F,P])=      1.120249233090, max([F,P])=      0.402641200333
 orbitals (Q,E):
 ---------------
 A :40...59          ( 2.00    -0.2656)  ( 2.00    -0.2643)  ( 2.00    -0.2631)  ( 2.00    -0.2630)
                     ( 2.00    -0.2627)  ( 2.00    -0.2614)  ( 2.00    -0.2605)  ( 2.00    -0.2134)
                     ( 2.00    -0.1945)  ( 2.00    -0.1906)  ( 0.00    -0.1447)  ( 0.00    -0.1433)
                     ( 0.00    -0.1165)  ( 0.00    -0.1142)  ( 0.00    -0.1108)  ( 0.00    -0.0897)
                     ( 0.00    -0.0643)  ( 0.00    -0.0554)  ( 0.00    -0.0261)  ( 0.00    -0.0162)

 CYCLE    2
  SDIIS (wt  0.000):  0.3449  0.6551
 A-DIIS (wt  1.000):  0.0000  1.0000
  DIIS coefficients:  0.0000  1.0000
 SCF Error: norm([F,P])=      0.746038665814, max([F,P])=      0.155426271412
 orbitals (Q,E):
 ---------------
 A :40...50          ( 2.00    -0.2910)  ( 2.00    -0.2907)  ( 2.00    -0.2893)  ( 2.00    -0.2878)
                     ( 2.00    -0.2265)  ( 2.00    -0.2212)  ( 2.00    -0.2119)  ( 2.00    -0.1975)
                     ( 2.00    -0.1919)  ( 2.00    -0.1738)  ( 0.00    -0.1313)

 CYCLE    3
  SDIIS (wt  0.000):  0.0941  0.6629  0.2430
 A-DIIS (wt  1.000):  0.0000  0.7875  0.2125
  DIIS coefficients:  0.0000  0.7875  0.2125
 SCF Error: norm([F,P])=      1.803994326774, max([F,P])=      0.588605782029
 orbitals (Q,E):
 ---------------
 A :40...50          ( 2.00    -0.2727)  ( 2.00    -0.2707)  ( 2.00    -0.2702)  ( 2.00    -0.2684)
                     ( 2.00    -0.2675)  ( 2.00    -0.2659)  ( 2.00    -0.2564)  ( 2.00    -0.2093)
                     ( 2.00    -0.1834)  ( 2.00    -0.1697)  ( 0.00    -0.1182)

 CYCLE    4
  SDIIS (wt  0.086):  0.4433  0.0890  0.4676
 A-DIIS (wt  0.914):  0.3393  0.0000  0.6607
  DIIS coefficients:  0.3483  0.0077  0.6441
 SCF Error: norm([F,P])=      0.447259731259, max([F,P])=      0.091465754155
 orbitals (Q,E):
 ---------------
 A :40...50          ( 2.00    -0.2606)  ( 2.00    -0.2597)  ( 2.00    -0.2584)  ( 2.00    -0.2560)
                     ( 2.00    -0.2550)  ( 2.00    -0.2544)  ( 2.00    -0.2527)  ( 2.00    -0.2046)
                     ( 2.00    -0.1823)  ( 2.00    -0.1742)  ( 0.00    -0.1189)

 CYCLE    5
  SDIIS (wt  0.000):  0.2055 -0.0495  0.5150  0.3290
 A-DIIS (wt  1.000):  0.1725  0.0000  0.4456  0.3820
  DIIS coefficients:  0.1725  0.0000  0.4456  0.3820
 SCF Error: norm([F,P])=      0.467050815505, max([F,P])=      0.162606479930
 orbitals (Q,E):
 ---------------
 A :40...50          ( 2.00    -0.2643)  ( 2.00    -0.2634)  ( 2.00    -0.2617)  ( 2.00    -0.2610)
                     ( 2.00    -0.2600)  ( 2.00    -0.2585)  ( 2.00    -0.2561)  ( 2.00    -0.2057)
                     ( 2.00    -0.1820)  ( 2.00    -0.1751)  ( 0.00    -0.1158)

 CYCLE    6
  SDIIS (wt  0.000):  0.0525 -0.0199  0.2891  0.3469  0.3314
 A-DIIS (wt  1.000):  0.0000  0.0000  0.0461  0.3649  0.5890
  DIIS coefficients:  0.0000  0.0000  0.0461  0.3649  0.5890
 SCF Error: norm([F,P])=      0.344310773280, max([F,P])=      0.112623046864
 orbitals (Q,E):
 ---------------
 A :40...50          ( 2.00    -0.2689)  ( 2.00    -0.2674)  ( 2.00    -0.2664)  ( 2.00    -0.2623)
                     ( 2.00    -0.2619)  ( 2.00    -0.2599)  ( 2.00    -0.2587)  ( 2.00    -0.2089)
                     ( 2.00    -0.1851)  ( 2.00    -0.1744)  ( 0.00    -0.1174)

 CYCLE    7
  SDIIS (wt  0.506): -0.0163 -0.0079  0.0791  0.2706  0.4408  0.2337
 A-DIIS (wt  0.494):  0.0000  0.0000  0.0000  0.1051  0.4049  0.4901
  DIIS coefficients: -0.0083 -0.0040  0.0400  0.1887  0.4230  0.3605
 SCF Error: norm([F,P])=      0.233667451804, max([F,P])=      0.049944068564
 orbitals (Q,E):
 ---------------
 A :40...50          ( 2.00    -0.2611)  ( 2.00    -0.2605)  ( 2.00    -0.2594)  ( 2.00    -0.2581)
                     ( 2.00    -0.2576)  ( 2.00    -0.2562)  ( 2.00    -0.2561)  ( 2.00    -0.2042)
                     ( 2.00    -0.1804)  ( 2.00    -0.1730)  ( 0.00    -0.1154)

 CYCLE    8
  SDIIS (wt  0.852): -0.0129 -0.0062  0.0245  0.1421  0.3174  0.2813  0.2538
 A-DIIS (wt  0.148):  0.0000  0.0000  0.0000  0.0000  0.0438  0.2088  0.7474
  DIIS coefficients: -0.0110 -0.0053  0.0209  0.1211  0.2771  0.2706  0.3266
 SCF Error: norm([F,P])=      0.090456196894, max([F,P])=      0.015604017086
 orbitals (Q,E):
 ---------------
 A :40...50          ( 2.00    -0.2649)  ( 2.00    -0.2627)  ( 2.00    -0.2621)  ( 2.00    -0.2606)
                     ( 2.00    -0.2598)  ( 2.00    -0.2592)  ( 2.00    -0.2583)  ( 2.00    -0.2059)
                     ( 2.00    -0.1824)  ( 2.00    -0.1736)  ( 0.00    -0.1158)

 CYCLE    9
  SDIIS (wt  0.947): -0.0051 -0.0011 -0.0116  0.0061  0.1005  0.1776  0.3533  0.3803
 A-DIIS (wt  0.053):  0.0000  0.0000  0.0000  0.0000  0.0000  0.0000  0.2077  0.7923
  DIIS coefficients: -0.0048 -0.0010 -0.0110  0.0057  0.0952  0.1683  0.3456  0.4019
 SCF Error: norm([F,P])=      0.034520837150, max([F,P])=      0.006210427558
 orbitals (Q,E):
 ---------------
 A :40...50          ( 2.00    -0.2637)  ( 2.00    -0.2633)  ( 2.00    -0.2621)  ( 2.00    -0.2608)
                     ( 2.00    -0.2603)  ( 2.00    -0.2596)  ( 2.00    -0.2585)  ( 2.00    -0.2060)
                     ( 2.00    -0.1823)  ( 2.00    -0.1740)  ( 0.00    -0.1160)

 CYCLE   10
  SDIIS (wt  0.998): -0.0021 -0.0006 -0.0071 -0.0033  0.0448  0.0932  0.2175  0.2970  0.3607
 A-DIIS (wt  0.002):  0.0000  0.0000  0.0000  0.0000  0.0000  0.0000  0.0000  0.0493  0.9507
  DIIS coefficients: -0.0021 -0.0006 -0.0071 -0.0033  0.0447  0.0930  0.2170  0.2965  0.3619
 SCF Error: norm([F,P])=      0.007580032283, max([F,P])=      0.001195257746
 orbitals (Q,E):
 ---------------
 A :40...50          ( 2.00    -0.2637)  ( 2.00    -0.2631)  ( 2.00    -0.2620)  ( 2.00    -0.2606)
                     ( 2.00    -0.2600)  ( 2.00    -0.2594)  ( 2.00    -0.2583)  ( 2.00    -0.2059)
                     ( 2.00    -0.1822)  ( 2.00    -0.1737)  ( 0.00    -0.1159)

 CYCLE   11
  SDIIS (wt  1.000):  0.0002 -0.0004 -0.0010 -0.0028  0.0113  0.0288  0.0817  0.1344  0.2534  0.4945
  DIIS coefficients:  0.0002 -0.0004 -0.0010 -0.0028  0.0113  0.0288  0.0817  0.1344  0.2534  0.4945
 SCF Error: norm([F,P])=      0.001957055056, max([F,P])=      0.000277163978
 orbitals (Q,E):
 ---------------
 A :40...50          ( 2.00    -0.2637)  ( 2.00    -0.2631)  ( 2.00    -0.2619)  ( 2.00    -0.2605)
                     ( 2.00    -0.2600)  ( 2.00    -0.2594)  ( 2.00    -0.2583)  ( 2.00    -0.2058)
                     ( 2.00    -0.1821)  ( 2.00    -0.1738)  ( 0.00    -0.1159)

 CYCLE   12
  SDIIS (wt  1.000): -0.0001 -0.0003 -0.0008  0.0026  0.0056  0.0188  0.0416  0.1095  0.2830  0.5402
  DIIS coefficients: -0.0001 -0.0003 -0.0008  0.0026  0.0056  0.0188  0.0416  0.1095  0.2830  0.5402
 SCF Error: norm([F,P])=      0.000665600683, max([F,P])=      0.000138392126
 orbitals (Q,E):
 ---------------
 A :40...50          ( 2.00    -0.2637)  ( 2.00    -0.2631)  ( 2.00    -0.2619)  ( 2.00    -0.2605)
                     ( 2.00    -0.2600)  ( 2.00    -0.2594)  ( 2.00    -0.2583)  ( 2.00    -0.2059)
                     ( 2.00    -0.1821)  ( 2.00    -0.1738)  ( 0.00    -0.1159)

 CYCLE   13
  SDIIS (wt  1.000): -0.0001 -0.0006  0.0004  0.0003  0.0047  0.0182  0.0626  0.1699  0.4305  0.3141
  DIIS coefficients: -0.0001 -0.0006  0.0004  0.0003  0.0047  0.0182  0.0626  0.1699  0.4305  0.3141
 SCF Error: norm([F,P])=      0.000426508388, max([F,P])=      0.000063027121
 orbitals (Q,E):
 ---------------
 A :40...50          ( 2.00    -0.2637)  ( 2.00    -0.2631)  ( 2.00    -0.2620)  ( 2.00    -0.2606)
                     ( 2.00    -0.2600)  ( 2.00    -0.2594)  ( 2.00    -0.2583)  ( 2.00    -0.2059)
                     ( 2.00    -0.1821)  ( 2.00    -0.1738)  ( 0.00    -0.1159)

 CYCLE   14
  SDIIS (wt  1.000): -0.0002  0.0002 -0.0000  0.0024  0.0104  0.0374  0.0962  0.2530  0.2133  0.3872
  DIIS coefficients: -0.0002  0.0002 -0.0000  0.0024  0.0104  0.0374  0.0962  0.2530  0.2133  0.3872
 SCF Error: norm([F,P])=      0.000091620700, max([F,P])=      0.000014771557
 orbitals (Q,E):
 ---------------
 A :40...50          ( 2.00    -0.2637)  ( 2.00    -0.2631)  ( 2.00    -0.2620)  ( 2.00    -0.2606)
                     ( 2.00    -0.2600)  ( 2.00    -0.2594)  ( 2.00    -0.2583)  ( 2.00    -0.2059)
                     ( 2.00    -0.1821)  ( 2.00    -0.1738)  ( 0.00    -0.1159)

 CYCLE   15
  SDIIS (wt  1.000):  0.0002  0.0001  0.0006  0.0026  0.0109  0.0247  0.0820  0.0823  0.2783  0.5182
  DIIS coefficients:  0.0002  0.0001  0.0006  0.0026  0.0109  0.0247  0.0820  0.0823  0.2783  0.5182
 SCF Error: norm([F,P])=      0.000045228513, max([F,P])=      0.000005775548
 orbitals (Q,E):
 ---------------
 A :40...50          ( 2.00    -0.2637)  ( 2.00    -0.2631)  ( 2.00    -0.2620)  ( 2.00    -0.2606)
                     ( 2.00    -0.2600)  ( 2.00    -0.2594)  ( 2.00    -0.2583)  ( 2.00    -0.2059)
                     ( 2.00    -0.1821)  ( 2.00    -0.1738)  ( 0.00    -0.1159)

 CYCLE   16
  SDIIS (wt  1.000): -0.0000 -0.0001  0.0004  0.0027  0.0060  0.0222  0.0211  0.1069  0.2611  0.5797
  DIIS coefficients: -0.0000 -0.0001  0.0004  0.0027  0.0060  0.0222  0.0211  0.1069  0.2611  0.5797
 SCF Error: norm([F,P])=      0.000010673305, max([F,P])=      0.000001338529
 orbitals (Q,E):
 ---------------
 A :40...50          ( 2.00    -0.2637)  ( 2.00    -0.2631)  ( 2.00    -0.2620)  ( 2.00    -0.2606)
                     ( 2.00    -0.2600)  ( 2.00    -0.2594)  ( 2.00    -0.2583)  ( 2.00    -0.2059)
                     ( 2.00    -0.1821)  ( 2.00    -0.1738)  ( 0.00    -0.1159)

 CYCLE   17
  SDIIS (wt  1.000): -0.0000  0.0001  0.0008  0.0016  0.0062  0.0066  0.0506  0.1263  0.3314  0.4764
  DIIS coefficients: -0.0000  0.0001  0.0008  0.0016  0.0062  0.0066  0.0506  0.1263  0.3314  0.4764
 SCF Error: norm([F,P])=      0.000002715086, max([F,P])=      0.000000495161
 orbitals (Q,E):
 ---------------
 A :40...50          ( 2.00    -0.2637)  ( 2.00    -0.2631)  ( 2.00    -0.2620)  ( 2.00    -0.2606)
                     ( 2.00    -0.2600)  ( 2.00    -0.2594)  ( 2.00    -0.2583)  ( 2.00    -0.2059)
                     ( 2.00    -0.1821)  ( 2.00    -0.1738)  ( 0.00    -0.1159)

 SCF CONVERGED

 CYCLE   18
1
 ***************************************************************************************************



                                                *******************
                                                *  R E S U L T S  *
                                                *******************
  
 *** Using FIT density in Focky
  SDIIS (wt  1.000):  0.0000  0.0002  0.0005  0.0013  0.0014  0.0147  0.0324  0.1116  0.2961  0.5418
  DIIS coefficients:  0.0000  0.0002  0.0005  0.0013  0.0014  0.0147  0.0324  0.1116  0.2961  0.5418
 SCF Error: norm([F,P])=      0.000001353861, max([F,P])=      0.000000263236

 Scaled ZORA Orbital Energies, per Irrep and Spin:
 =================================================
                        Occup              E (au)              E (eV)       Diff (eV) with prev. cycle
                        -----      --------------------        ------       --------------------------
 A
              40        2.000     -0.26368946481751E+00        -7.175               2.88E-08
              41        2.000     -0.26309390321990E+00        -7.159               4.70E-07
              42        2.000     -0.26195257039552E+00        -7.128              -4.07E-08
              43        2.000     -0.26055919733264E+00        -7.090               3.40E-07
              44        2.000     -0.26002759719351E+00        -7.076               2.87E-07
              45        2.000     -0.25943921808122E+00        -7.060               1.27E-07
              46        2.000     -0.25831278498184E+00        -7.029               1.35E-07
              47        2.000     -0.20585892811733E+00        -5.602               4.02E-07
              48        2.000     -0.18214598893982E+00        -4.956               6.59E-07
              49        2.000     -0.17376463925617E+00        -4.728               1.20E-06
              50        0.000     -0.11589576173391E+00        -3.154
              51        0.000     -0.10897928042940E+00        -2.965
              52        0.000     -0.10769816846741E+00        -2.931
              53        0.000     -0.10157213412935E+00        -2.764
              54        0.000     -0.88956800621715E-01        -2.421
              55        0.000     -0.74755958510933E-01        -2.034
              56        0.000     -0.47757193117119E-01        -1.300
              57        0.000     -0.38736158627745E-01        -1.054
              58        0.000     -0.17472411190900E-01        -0.475
              59        0.000     -0.82975219123879E-02        -0.226
  
 HOMO :       49 A                -0.17376463925617E+00
 LUMO :       50 A                -0.11589576173391E+00
  


 Scaled ZORA Orbital Energies of the Core Orbitals:
 ==================================================

 (Note that the atoms are grouped by atomtype, see the labels, and may hence NOT be in input order)

 AtomType  Orbital  Atom                   E (au)                        E (eV)
 --------  -------  ----           --------------------        ----------------
 C           1S        1          -0.10043997861141E+02                -273.311
 O           1S        2          -0.18901071398845E+02                -514.324
 Ag          1S        3          -0.93043270821453E+03              -25318.362
                       4          -0.93040899710573E+03              -25317.717
                       5          -0.93041179728566E+03              -25317.793
                       6          -0.93040950138113E+03              -25317.731
                       7          -0.93040860725124E+03              -25317.706
                       8          -0.93041284593829E+03              -25317.822
                       9          -0.93040802240269E+03              -25317.690
                      10          -0.93041302711614E+03              -25317.827
             2S        3          -0.13699158084262E+03               -3727.731
                       4          -0.13696761917046E+03               -3727.079
                       5          -0.13697045883387E+03               -3727.156
                       6          -0.13696813989733E+03               -3727.093
                       7          -0.13696732385303E+03               -3727.071
                       8          -0.13697151326291E+03               -3727.185
                       9          -0.13696664502834E+03               -3727.052
                      10          -0.13697169287453E+03               -3727.189
             3S        3          -0.25131778045488E+02                -683.870
                       4          -0.25108556121798E+02                -683.239
                       5          -0.25111480332287E+02                -683.318
                       6          -0.25109044252806E+02                -683.252
                       7          -0.25108314401725E+02                -683.232
                       8          -0.25112533225191E+02                -683.347
                       9          -0.25107584393623E+02                -683.212
                      10          -0.25112727043523E+02                -683.352
             4S        3          -0.35364844402561E+01                 -96.233
                       4          -0.35151017394829E+01                 -95.651
                       5          -0.35182661138787E+01                 -95.737
                       6          -0.35155212780131E+01                 -95.662
                       7          -0.35150080664216E+01                 -95.648
                       8          -0.35193118221707E+01                 -95.765
                       9          -0.35141440481958E+01                 -95.625
                      10          -0.35195395377370E+01                 -95.772
             2P        3          -0.12284386644651E+03               -3342.752
                       4          -0.12281990570914E+03               -3342.100
                       5          -0.12282274362817E+03               -3342.177
                       6          -0.12282042627741E+03               -3342.114
                       7          -0.12281960548423E+03               -3342.092
                       8          -0.12282379787005E+03               -3342.206
                       9          -0.12281893156799E+03               -3342.073
                      10          -0.12282397690926E+03               -3342.210
             3P        3          -0.20516005804601E+02                -558.269
                       4          -0.20492780787753E+02                -557.637
                       5          -0.20495705475465E+02                -557.717
                       6          -0.20493269220721E+02                -557.650
                       7          -0.20492539917201E+02                -557.630
                       8          -0.20496758441836E+02                -557.745
                       9          -0.20491809099238E+02                -557.610
                      10          -0.20496952142522E+02                -557.750
             4P        3          -0.22003335236612E+01                 -59.874
                       4          -0.21794647299589E+01                 -59.306
                       5          -0.21827164295726E+01                 -59.395
                       6          -0.21798663136524E+01                 -59.317
                       7          -0.21794230607727E+01                 -59.305
                       8          -0.21837596214878E+01                 -59.423
                       9          -0.21785074473094E+01                 -59.280
                      10          -0.21839938253055E+01                 -59.429
             3D        3          -0.13215628929795E+02                -359.616
                       4          -0.13192302703111E+02                -358.981
                       5          -0.13195218510735E+02                -359.060
                       6          -0.13192795835173E+02                -358.994
                       7          -0.13192059493437E+02                -358.974
                       8          -0.13196271932247E+02                -359.089
                       9          -0.13191330686600E+02                -358.954
                      10          -0.13196463989263E+02                -359.094


 Fit test: (difference of exact and fit density, squared integrated, result summed over spins)
         Sum-of-Fragments:                             0.00000000005603
         Orthogonalized Fragments:                     0.00008364378079
         SCF:                                          0.00028144929109



 ==========================
 Electron Density at Nuclei
 ==========================
  
 The electron density is calculated at points on a small sphere around the center of a nucleus.
 The printed electron density is the average electron density on these points.
 The radius of the sphere is the printed approximate finite nuclear radius.
 Note: ZORA-4 density is used, which includes small component density

         Atom        Nuclear Radius (Angstrom)             Electron Density (a.u.)
         ----        -------------------------             -----------------------
     1)   C                 0.0000320678                              127.51738
     2)   O                 0.0000345546                              316.13446
     3)   Ag                0.0000585966                           141430.03287
     4)   Ag                0.0000585966                           141430.02587
     5)   Ag                0.0000585966                           141430.48882
     6)   Ag                0.0000585966                           141430.06065
     7)   Ag                0.0000585966                           141430.60951
     8)   Ag                0.0000585966                           141430.51865
     9)   Ag                0.0000585966                           141430.02727
    10)   Ag                0.0000585966                           141430.49426



 =======================================
 M U L L I K E N   P O P U L A T I O N S
 =======================================
  
 The survey below gives for each atom:
 a) the total charge (Z minus electrons)
 b) the net spin polarization (nr of electrons spin-A minus spin-B)
 c) for each spin the atomic electron valence density (integrated) per L-value.

 Atom              Charge    Spin density          S         P         D         F
 ----              ------    ------------       ------    ------    ------    ------
 1 C               0.2758                       1.6102    2.0306    0.0835    0.0000
 2 O              -0.2891                       1.8702    4.3609    0.0580    0.0000
 3 Ag              0.1188                       0.7024    0.4129    9.7658    0.0000
 4 Ag              0.0627                       0.8358    0.2635    9.8379    0.0000
 5 Ag             -0.0728                       0.9812    0.2158    9.8758    0.0000
 6 Ag              0.0603                       0.8401    0.2639    9.8357    0.0000
 7 Ag             -0.0844                       0.9903    0.2199    9.8742    0.0000
 8 Ag             -0.0689                       0.9824    0.2108    9.8756    0.0000
 9 Ag              0.0658                       0.8297    0.2650    9.8394    0.0000
 10 Ag            -0.0682                       0.9777    0.2148    9.8758    0.0000

 Populations of individual BAS functions
 ----------------------------------------
 1 C            0.0007  0.7649  0.8779 -0.0333 -0.0108 -0.0025 -0.0204  0.5106  0.4975  0.5785
                0.1555  0.1285  0.1937  0.0085  0.0105  0.0180  0.0016  0.0184  0.0264
 2 O            0.0005  0.8941  0.9928 -0.0172  0.2893  0.3181  0.2482  0.8922  0.8803  0.9215
                0.2677  0.2626  0.2811  0.0085  0.0075  0.0124 -0.0018  0.0123  0.0192
 3 Ag          -0.0003  0.0002 -0.0022  0.0287  0.0000  0.0000  0.0000  0.0001  0.0001  0.0001
                0.0011  0.0014  0.0021  0.0384  0.0575  0.0569  0.0380  0.0578  0.0380  0.2629
                0.4540 -0.0408  0.5510  0.8194  0.8108  0.5412  0.8230  0.5386  0.6503  0.9540
                0.9482  0.6294  0.9536  0.6187  0.0953  0.1328  0.1271  0.0907  0.1254  0.0697
                0.1365  0.1223  0.1492
 4 Ag          -0.0003  0.0002 -0.0023  0.0284  0.0000  0.0000  0.0000  0.0000  0.0001  0.0001
                0.0007  0.0011  0.0010  0.0384  0.0575  0.0578  0.0383  0.0570  0.0384  0.2820
                0.5028  0.0250  0.5505  0.8197  0.8237  0.5422  0.8124  0.5478  0.6473  0.9566
                0.9615  0.6233  0.9538  0.6412  0.0927  0.1317  0.1240  0.0927  0.1369  0.0928
                0.0496  0.0900  0.1210
 5 Ag          -0.0003  0.0002 -0.0024  0.0296  0.0000  0.0000  0.0000  0.0000  0.0000  0.0000
                0.0006  0.0007  0.0007  0.0382  0.0576  0.0574  0.0383  0.0575  0.0383  0.3201
                0.6073  0.0268  0.5462  0.8216  0.8190  0.5439  0.8200  0.5469  0.6440  0.9587
                0.9550  0.6269  0.9572  0.6431  0.0891  0.1416  0.1430  0.1013  0.1448  0.0864
                0.0698  0.0594  0.0845
 6 Ag          -0.0003  0.0002 -0.0023  0.0285  0.0000  0.0000  0.0000  0.0000  0.0001  0.0001
                0.0007  0.0011  0.0010  0.0384  0.0575  0.0578  0.0383  0.0570  0.0384  0.2827
                0.5047  0.0266  0.5505  0.8196  0.8232  0.5423  0.8123  0.5478  0.6475  0.9564
                0.9606  0.6231  0.9537  0.6410  0.0923  0.1317  0.1237  0.0928  0.1368  0.0931
                0.0503  0.0904  0.1201
 7 Ag          -0.0003  0.0002 -0.0025  0.0300  0.0000  0.0000  0.0000  0.0000  0.0000  0.0000
                0.0006  0.0007  0.0008  0.0382  0.0576  0.0574  0.0383  0.0574  0.0383  0.3224
                0.6096  0.0308  0.5461  0.8213  0.8187  0.5445  0.8193  0.5467  0.6443  0.9584
                0.9542  0.6266  0.9560  0.6418  0.0886  0.1419  0.1430  0.1029  0.1464  0.0861
                0.0681  0.0566  0.0931
 8 Ag          -0.0003  0.0002 -0.0024  0.0297  0.0000  0.0000  0.0000  0.0000  0.0000  0.0000
                0.0008  0.0007  0.0005  0.0383  0.0574  0.0574  0.0383  0.0576  0.0383  0.3194
                0.6066  0.0293  0.5465  0.8192  0.8187  0.5450  0.8211  0.5470  0.6394  0.9562
                0.9553  0.6281  0.9587  0.6478  0.0861  0.1465  0.1427  0.1017  0.1412  0.0872
                0.0850  0.0593  0.0645
 9 Ag          -0.0003  0.0002 -0.0023  0.0284  0.0000  0.0000  0.0000  0.0000  0.0001  0.0000
                0.0009  0.0012  0.0008  0.0383  0.0570  0.0578  0.0383  0.0576  0.0384  0.2817
                0.4973  0.0247  0.5475  0.8124  0.8233  0.5422  0.8204  0.5504  0.6414  0.9541
                0.9612  0.6221  0.9571  0.6477  0.0940  0.1366  0.1249  0.0934  0.1310  0.0926
                0.1113  0.0922  0.0585
 10 Ag         -0.0003  0.0002 -0.0024  0.0296  0.0000  0.0000  0.0000  0.0000  0.0000  0.0000
                0.0008  0.0007  0.0005  0.0383  0.0574  0.0574  0.0383  0.0576  0.0383  0.3183
                0.6043  0.0280  0.5466  0.8190  0.8186  0.5450  0.8213  0.5469  0.6394  0.9562
                0.9552  0.6285  0.9589  0.6472  0.0864  0.1462  0.1427  0.1024  0.1412  0.0865
                0.0861  0.0606  0.0660

 Gross Charges per Atom (Z minus electrons)
 ==========================================
             0.2758   -0.2891    0.1188    0.0627   -0.0728    0.0603   -0.0844   -0.0689    0.0658   -0.0682
 Net Total: -0.00000000


 Atom-Atom Population Matrix (off-diagonal elements not doubled)
 ===============================================================

     1 :     3.1016
     2 :     0.4811    5.8230
     3 :     0.1442   -0.0112   10.2698
     4 :     0.0024   -0.0011    0.0766   10.4555
     5 :     0.0021   -0.0026    0.1714    0.1222   10.6253
     6 :    -0.0015    0.0001    0.0823   -0.0538    0.1235   10.4558
     7 :    -0.0004    0.0001   -0.0295    0.1132    0.0946    0.1096   10.6327
     8 :    -0.0041    0.0001    0.1132   -0.0332   -0.0121    0.1873   -0.0190   10.6129
     9 :     0.0000    0.0001   -0.0438    0.0694   -0.0390    0.0703    0.2014    0.1038   10.4629
    10 :    -0.0011   -0.0004    0.1081    0.1862   -0.0126   -0.0339   -0.0182    0.1199    0.1089   10.6113



 =================================================
 H I R S H F E L D   C H A R G E   A N A L Y S I S
 =================================================
  
 For each fragment: the (numerical) integral of rho(scf) * rho(fragment)/rho(sum-of-fragments)
 (nuclear charges are included, electrons are counted negative)

 The fragments and their ordering are defined in the early G E O M E T R Y output section.
 If you use single-atom fragments, this usually implies that all atoms of the same
[...]
 ----------------------------------------
     1 C    -0.007578 -0.004557 -0.010780
     2 O     0.007931  0.004803  0.010889
     3 Ag   -0.000039  0.002007 -0.003811
     4 Ag    0.002462 -0.000481 -0.000522
     5 Ag    0.000150  0.000762  0.000657
     6 Ag   -0.002376 -0.000268 -0.001508
     7 Ag   -0.000242 -0.001662  0.003755
     8 Ag   -0.000042 -0.000706  0.001476
     9 Ag    0.000053  0.000060 -0.000299
    10 Ag   -0.000318  0.000042  0.000142
 ----------------------------------------
 Mulliken charges used for AMS results%charges...
 *** adf_MBHStep9 ***

 Energy gradients wrt nuclear displacements
 ==========================================

     Atom      Cartesian (a.u./angstrom)
                 X         Y         Z
 ----------------------------------------
     1 C    -0.003376 -0.002244 -0.004641
     2 O     0.003722  0.002375  0.004906
     3 Ag   -0.000040  0.002108 -0.003914
     4 Ag    0.002448 -0.000479 -0.000522
     5 Ag    0.000146  0.000763  0.000664
     6 Ag   -0.002358 -0.000274 -0.001491
     7 Ag   -0.000238 -0.001660  0.003706
     8 Ag   -0.000049 -0.000715  0.001471
     9 Ag    0.000059  0.000096 -0.000306
    10 Ag   -0.000315  0.000029  0.000128
 ----------------------------------------
 Mulliken charges used for AMS results%charges...
 *** adf_MBHStep10 ***

 Energy gradients wrt nuclear displacements
 ==========================================

     Atom      Cartesian (a.u./angstrom)
                 X         Y         Z
 ----------------------------------------
     1 C     0.003598  0.002179  0.004738
     2 O    -0.003232 -0.002013 -0.004600
     3 Ag   -0.000017  0.002054 -0.003802
     4 Ag    0.002463 -0.000468 -0.000536
     5 Ag    0.000136  0.000769  0.000643
     6 Ag   -0.002382 -0.000267 -0.001500
     7 Ag   -0.000241 -0.001629  0.003760
     8 Ag   -0.000061 -0.000712  0.001451
     9 Ag    0.000051  0.000056 -0.000267
    10 Ag   -0.000317  0.000032  0.000113
 ----------------------------------------
 Mulliken charges used for AMS results%charges...
 *** adf_MBHStep13 ***

 Energy gradients wrt nuclear displacements
 ==========================================

     Atom      Cartesian (a.u./angstrom)
                 X         Y         Z
 ----------------------------------------
     1 C     0.000095  0.000013  0.000073
     2 O     0.000207  0.000152  0.000032
     3 Ag    0.000004  0.002073 -0.003769
     4 Ag    0.002462 -0.000475 -0.000530
     5 Ag    0.000143  0.000762  0.000657
     6 Ag   -0.002360 -0.000272 -0.001493
     7 Ag   -0.000248 -0.001645  0.003732
     8 Ag   -0.000046 -0.000710  0.001474
     9 Ag    0.000054  0.000076 -0.000288
    10 Ag   -0.000311  0.000027  0.000111
 ----------------------------------------
 Mulliken charges used for AMS results%charges...
 *** adf_MBHStep14 ***

 Energy gradients wrt nuclear displacements
 ==========================================

     Atom      Cartesian (a.u./angstrom)
                 X         Y         Z
 ----------------------------------------
     1 C     0.000117 -0.000025  0.000013
     2 O     0.000285  0.000171  0.000269
     3 Ag   -0.000062  0.002087 -0.003942
     4 Ag    0.002450 -0.000474 -0.000527
     5 Ag    0.000141  0.000768  0.000652
     6 Ag   -0.002378 -0.000270 -0.001496
     7 Ag   -0.000230 -0.001645  0.003735
     8 Ag   -0.000061 -0.000719  0.001449
     9 Ag    0.000058  0.000074 -0.000284
    10 Ag   -0.000320  0.000032  0.000132
 ----------------------------------------
 Mulliken charges used for AMS results%charges...
 *** adf_MBHStep15 ***

 Energy gradients wrt nuclear displacements
 ==========================================

     Atom      Cartesian (a.u./angstrom)
                 X         Y         Z
 ----------------------------------------
     1 C     0.000088 -0.000105  0.000106
     2 O     0.000273  0.000204  0.000166
     3 Ag   -0.000039  0.002111 -0.003920
     4 Ag    0.002451 -0.000474 -0.000527
     5 Ag    0.000141  0.000780  0.000649
     6 Ag   -0.002363 -0.000271 -0.001490
     7 Ag   -0.000239 -0.001655  0.003717
     8 Ag   -0.000050 -0.000712  0.001472
     9 Ag    0.000057  0.000091 -0.000302
    10 Ag   -0.000318  0.000031  0.000130
 ----------------------------------------
 Mulliken charges used for AMS results%charges...
 *** adf_MBHStep16 ***

 Energy gradients wrt nuclear displacements
 ==========================================

     Atom      Cartesian (a.u./angstrom)
                 X         Y         Z
 ----------------------------------------
     1 C     0.000123  0.000093 -0.000021
     2 O     0.000219  0.000119  0.000135
     3 Ag   -0.000017  0.002049 -0.003791
     4 Ag    0.002462 -0.000475 -0.000529
     5 Ag    0.000143  0.000750  0.000660
     6 Ag   -0.002375 -0.000271 -0.001499
     7 Ag   -0.000239 -0.001636  0.003750
     8 Ag   -0.000058 -0.000717  0.001452
     9 Ag    0.000055  0.000059 -0.000269
    10 Ag   -0.000312  0.000029  0.000112
 ----------------------------------------
 Mulliken charges used for AMS results%charges...
 *** adf_MBHStep17 ***

 Energy gradients wrt nuclear displacements
 ==========================================

     Atom      Cartesian (a.u./angstrom)
                 X         Y         Z
 ----------------------------------------
     1 C     0.000194  0.000145 -0.000049
     2 O     0.000068  0.000092 -0.000137
     3 Ag    0.000067  0.002001 -0.003551
     4 Ag    0.002463 -0.000476 -0.000528
     5 Ag    0.000143  0.000764  0.000656
     6 Ag   -0.002382 -0.000268 -0.001499
     7 Ag   -0.000240 -0.001645  0.003771
     8 Ag   -0.000047 -0.000705  0.001478
     9 Ag    0.000057  0.000052 -0.000279
    10 Ag   -0.000323  0.000040  0.000138
 ----------------------------------------
 Mulliken charges used for AMS results%charges...
 *** adf_MBHStep18 ***

 Energy gradients wrt nuclear displacements
 ==========================================

     Atom      Cartesian (a.u./angstrom)
                 X         Y         Z
 ----------------------------------------
     1 C     0.000016 -0.000155  0.000125
     2 O     0.000423  0.000231  0.000436
     3 Ag   -0.000121  0.002156 -0.004149
     4 Ag    0.002450 -0.000473 -0.000528
     5 Ag    0.000141  0.000767  0.000652
     6 Ag   -0.002356 -0.000274 -0.001490
     7 Ag   -0.000238 -0.001646  0.003696
     8 Ag   -0.000061 -0.000724  0.001446
     9 Ag    0.000055  0.000098 -0.000293
    10 Ag   -0.000308  0.000020  0.000105
 ----------------------------------------
 Mulliken charges used for AMS results%charges...
 *** adf_MBHStep19 ***

 Energy gradients wrt nuclear displacements
 ==========================================

     Atom      Cartesian (a.u./angstrom)
                 X         Y         Z
 ----------------------------------------
     1 C     0.000077  0.000144  0.000007
     2 O     0.000303  0.000113  0.000266
     3 Ag   -0.000061  0.002094 -0.003886
     4 Ag    0.002464 -0.000470 -0.000521
     5 Ag    0.000147  0.000692  0.000687
     6 Ag   -0.002375 -0.000265 -0.001486
     7 Ag   -0.000239 -0.001625  0.003722
     8 Ag   -0.000072 -0.000741  0.001392
     9 Ag    0.000052  0.000049 -0.000239
    10 Ag   -0.000295  0.000009  0.000058
 ----------------------------------------
 Mulliken charges used for AMS results%charges...
 *** adf_MBHStep20 ***

 Energy gradients wrt nuclear displacements
 ==========================================

     Atom      Cartesian (a.u./angstrom)
                 X         Y         Z
 ----------------------------------------
     1 C     0.000135 -0.000157  0.000077
     2 O     0.000190  0.000211  0.000039
     3 Ag    0.000002  0.002062 -0.003816
     4 Ag    0.002453 -0.000475 -0.000540
     5 Ag    0.000136  0.000840  0.000624
     6 Ag   -0.002368 -0.000275 -0.001505
     7 Ag   -0.000239 -0.001664  0.003742
     8 Ag   -0.000037 -0.000690  0.001531
     9 Ag    0.000061  0.000100 -0.000338
    10 Ag   -0.000335  0.000048  0.000186
 ----------------------------------------
 Mulliken charges used for AMS results%charges...
 *** adf_MBHStep21 ***

 Energy gradients wrt nuclear displacements
 ==========================================

     Atom      Cartesian (a.u./angstrom)
                 X         Y         Z
 ----------------------------------------
     1 C     0.000032  0.000040  0.000116
     2 O     0.000192  0.000134 -0.000073
     3 Ag    0.000021  0.002066 -0.003688
     4 Ag    0.002481 -0.000471 -0.000546
     5 Ag    0.000153  0.000760  0.000660
     6 Ag   -0.002348 -0.000275 -0.001481
     7 Ag   -0.000257 -0.001646  0.003729
     8 Ag   -0.000030 -0.000704  0.001511
     9 Ag    0.000048  0.000078 -0.000303
    10 Ag   -0.000291  0.000017  0.000076
 ----------------------------------------
 Mulliken charges used for AMS results%charges...
 *** adf_MBHStep22 ***

 Energy gradients wrt nuclear displacements
 ==========================================

     Atom      Cartesian (a.u./angstrom)
                 X         Y         Z
 ----------------------------------------
     1 C     0.000179 -0.000052 -0.000032
     2 O     0.000303  0.000189  0.000378
     3 Ag   -0.000086  0.002093 -0.004015
     4 Ag    0.002437 -0.000476 -0.000512
     5 Ag    0.000132  0.000770  0.000651
     6 Ag   -0.002394 -0.000265 -0.001509
     7 Ag   -0.000220 -0.001646  0.003735
     8 Ag   -0.000076 -0.000726  0.001412
     9 Ag    0.000064  0.000071 -0.000275
    10 Ag   -0.000339  0.000041  0.000168
 ----------------------------------------
 Mulliken charges used for AMS results%charges...
 *** adf_MBHStep23 ***

 Energy gradients wrt nuclear displacements
 ==========================================

     Atom      Cartesian (a.u./angstrom)
                 X         Y         Z
 ----------------------------------------
     1 C     0.000066  0.000009  0.000062
     2 O     0.000237  0.000149  0.000088
     3 Ag    0.000002  0.002074 -0.003805
     4 Ag    0.002470 -0.000471 -0.000531
     5 Ag    0.000125  0.000766  0.000650
     6 Ag   -0.002359 -0.000266 -0.001488
     7 Ag   -0.000258 -0.001648  0.003734
     8 Ag   -0.000040 -0.000722  0.001477
     9 Ag    0.000067  0.000075 -0.000290
    10 Ag   -0.000310  0.000033  0.000104
 ----------------------------------------
 Mulliken charges used for AMS results%charges...
 *** adf_MBHStep24 ***

 Energy gradients wrt nuclear displacements
 ==========================================

     Atom      Cartesian (a.u./angstrom)
                 X         Y         Z
 ----------------------------------------
     1 C     0.000146 -0.000021  0.000025
     2 O     0.000254  0.000173  0.000213
     3 Ag   -0.000058  0.002082 -0.003901
     4 Ag    0.002446 -0.000479 -0.000529
     5 Ag    0.000158  0.000765  0.000659
     6 Ag   -0.002385 -0.000271 -0.001503
     7 Ag   -0.000221 -0.001640  0.003734
     8 Ag   -0.000069 -0.000710  0.001447
     9 Ag    0.000048  0.000072 -0.000282
    10 Ag   -0.000318  0.000029  0.000138
 ----------------------------------------
 Mulliken charges used for AMS results%charges...
 
 ---------------------------------------------------------------------------
 Block Normal Mode Analysis performed with Mobile Block Hessian (MBH) method
 ---------------------------------------------------------------------------

  Vibrational modes in partially optimized molecular systems
  A. Ghysels, D. Van Neck, V. Van Speybroeck, T. Verstraelen, M. Waroquier
  J. Chem. Phys., Vol. 126 (22), No. 224102, 2007

  Cartesian formulation of the Mobile Block Hesian approach to
  vibrational analysis in partially optimized systems,
  A. Ghysels, D. Van Neck, M. Waroquier, J. Chem. Phys.,
  Vol. 127 (16), No. 164108, 2007

 --------------------------------------------------------
 Block Normal Modes Frequencies (including rigid motions)
 --------------------------------------------------------
 Index     Frequency (cm-1)  Intensity (km/mole)
     1         -0.2018              0.0000
     2         -0.0800              0.0000
     3         -0.0109              0.0000
     4          2.2195              0.0021
     5          4.2922              0.0009
     6          5.2566              0.0016
     7         25.1965              0.0075
     8         32.5279              0.0049
     9        138.6283              3.9094
    10        145.6443              0.2162
    11        220.8444             13.9648
    12       2010.6898            992.6277
 
 
 --------------------------------------------
 Block Normal Modes (including rigid motions)
 --------------------------------------------
 
 Index:   1     Frequency (cm-1):        -0.2018     Intensity (km/mole)         0.0000
    1         0.063518    0.116202   -0.296562
    2         0.071494    0.125813   -0.306658
    3         0.032981    0.100261   -0.294684
    4         0.006742    0.095237   -0.324037
    5         0.019373    0.097785   -0.310397
    6         0.006742    0.083347   -0.278930
    7        -0.015550    0.080799   -0.310397
    8         0.015259    0.084689   -0.268309
    9        -0.012505    0.078127   -0.294641
   10         0.014798    0.093604   -0.302979
 
 Index:   2     Frequency (cm-1):        -0.0800     Intensity (km/mole)         0.0000
    1         0.167937   -0.248051   -0.068014
    2         0.167644   -0.249146   -0.067337
    3         0.174244   -0.250422   -0.069888
    4         0.180359   -0.253991   -0.065986
    5         0.177110   -0.250968   -0.073356
    6         0.180359   -0.251694   -0.076791
    7         0.185475   -0.254717   -0.073356
    8         0.178713   -0.251953   -0.072104
    9         0.185137   -0.255286   -0.069964
   10         0.178823   -0.253765   -0.063814
 
 Index:   3     Frequency (cm-1):        -0.0109     Intensity (km/mole)         0.0000
    1         0.260748    0.168617    0.060178
    2         0.260785    0.168765    0.060089
    3         0.260769    0.168533    0.060084
    4         0.260846    0.168082    0.059882
    5         0.261370    0.168533    0.060086
    6         0.260846    0.168986    0.060289
    7         0.261055    0.168535    0.060086
    8         0.260198    0.168884    0.060241
    9         0.260365    0.168539    0.060086
   10         0.260196    0.168190    0.059928
 
 Index:   4     Frequency (cm-1):         2.2195     Intensity (km/mole)         0.0021
    1        -0.491143   -0.154012   -0.013170
    2        -0.553281   -0.235165    0.068096
    3        -0.217400   -0.052080   -0.039948
    4         0.031562   -0.038432    0.217473
    5        -0.092682   -0.037032    0.055527
    6         0.031562    0.067576   -0.214738
    7         0.241944    0.066175    0.055527
    8        -0.044364    0.055608   -0.261420
    9         0.218390    0.082551   -0.040860
   10        -0.039959   -0.024483    0.070663
 
 Index:   5     Frequency (cm-1):         4.2922     Intensity (km/mole)         0.0009
    1         0.063847    0.035887   -0.005070
    2         0.079585    0.064203   -0.029246
    3        -0.019341    0.004358    0.003172
    4        -0.101943    0.322135    0.117552
    5        -0.454951    0.003268   -0.003740
    6        -0.101943   -0.323070   -0.117190
    7        -0.273209   -0.004204   -0.003740
    8         0.360167   -0.250232   -0.083778
    9         0.212762   -0.008016    0.002142
   10         0.361476    0.245100    0.096457
 
 Index:   6     Frequency (cm-1):         5.2566     Intensity (km/mole)         0.0016
    1        -0.163268    0.427709    0.141509
    2        -0.119919    0.445294    0.100866
    3        -0.100037    0.225310    0.074579
    4         0.011034   -0.041099    0.020510
    5        -0.036767    0.171831   -0.264709
    6         0.011034    0.018000   -0.164998
    7         0.106857   -0.194931   -0.264709
    8        -0.031294    0.011328    0.195232
    9         0.087096   -0.251330    0.070725
   10        -0.029383   -0.038700    0.336946
 
 Index:   7     Frequency (cm-1):        25.1965     Intensity (km/mole)         0.0075
    1         0.518546    0.132778   -0.079805
    2         0.730262    0.240741   -0.282024
    3        -0.090591   -0.024673    0.001003
    4        -0.014155   -0.029418    0.074497
    5        -0.043767   -0.020580    0.026973
    6        -0.014155    0.016332   -0.050016
    7         0.052633    0.007493    0.026973
    8        -0.046922    0.011167   -0.061929
    9         0.035052    0.012017    0.000726
   10        -0.045630   -0.023607    0.033735
 
 Index:   8     Frequency (cm-1):        32.5279     Intensity (km/mole)         0.0049
    1        -0.141810    0.526658    0.186378
    2        -0.208630    0.767167    0.127543
    3         0.015124   -0.063138   -0.017790
    4         0.005542   -0.020827   -0.001145
    5         0.011614   -0.053820    0.041325
    6         0.005542   -0.022911    0.016728
    7        -0.002224    0.010082    0.041325
    8         0.007034   -0.022675   -0.044405
    9        -0.002882    0.019943   -0.017178
   10         0.006855   -0.020266   -0.058001
 
 Index:   9     Frequency (cm-1):       138.6283     Intensity (km/mole)         3.9094
    1         0.239503    0.206494    0.512767
    2         0.205047   -0.244326    0.728482
    3        -0.016656   -0.003257   -0.022322
    4        -0.006621   -0.000341   -0.010479
    5        -0.011820   -0.002149   -0.015297
    6        -0.006621    0.003637   -0.028085
    7         0.001811    0.005445   -0.015297
    8        -0.009469    0.003188   -0.033123
    9         0.001094    0.006635   -0.022331
   10        -0.009290    0.000230   -0.019589
 
 Index:  10     Frequency (cm-1):       145.6443     Intensity (km/mole)         0.2162
    1         0.687518   -0.496437   -0.193239
    2        -0.345057    0.274177    0.220769
    3        -0.010394    0.005550   -0.000254
    4        -0.002580   -0.000216    0.003985
    5        -0.005974    0.004713   -0.005570
    6        -0.002580    0.003895   -0.009094
    7         0.004153   -0.001034   -0.005570
    8        -0.005524    0.003431   -0.002302
    9         0.002800   -0.001904   -0.000356
   10        -0.005389    0.000202    0.007730
 
 Index:  11     Frequency (cm-1):       220.8444     Intensity (km/mole)        13.9648
    1         0.272073    0.650252   -0.629302
    2        -0.174700   -0.257156    0.099440
    3        -0.001378   -0.006615    0.006267
    4        -0.000489   -0.004527    0.008451
    5        -0.000914   -0.006098    0.009550
    6        -0.000489   -0.004120    0.006925
    7         0.000268   -0.002549    0.009550
    8        -0.000780   -0.004166    0.003814
    9         0.000161   -0.001999    0.006291
   10        -0.000765   -0.004433    0.004993
 
 Index:  12     Frequency (cm-1):      2010.6898     Intensity (km/mole)       992.6277
    1         0.444087    0.268196    0.605844
    2        -0.334465   -0.201449   -0.459741
    3         0.000066    0.000016    0.000101
    4         0.000023    0.000011    0.000054
    5         0.000049    0.000013    0.000085
    6         0.000023   -0.000002    0.000134
    7        -0.000013   -0.000004    0.000085
    8         0.000031   -0.000000    0.000141
    9        -0.000014   -0.000007    0.000101
   10         0.000031    0.000009    0.000079
 


    =====================
     CALCULATION RESULTS
    =====================

Energy (hartree)            -1.07567379


--------------
Atomic charges
--------------
  Index   Atom    Charge
      1      C    0.2758
      2      O   -0.2891
      3     Ag    0.1188
      4     Ag    0.0627
      5     Ag   -0.0728
      6     Ag    0.0603
      7     Ag   -0.0844
      8     Ag   -0.0689
      9     Ag    0.0658
     10     Ag   -0.0682


Dipole moment vector    (Debye):    -0.08050504   -0.31588275    0.27359744
              magnitude (Debye):     0.42558023


AMS application finished. Exiting.
NORMAL TERMINATION
     Total cpu time:     111.68
  Total system time:       9.11
 Total elapsed time:     140.43
