

 Parallel Execution: Process Information
 ==============================================================================
 Rank   Node Name                              NodeID   MyNodeRank  NodeMaster
    0   p-sc-2005                                 0          0          0
    1   p-sc-2005                                 0          1         -1
    2   p-sc-2005                                 0          2         -1
    3   p-sc-2005                                 0          3         -1
    4   p-sc-2005                                 0          4         -1
    5   p-sc-2005                                 0          5         -1
    6   p-sc-2005                                 0          6         -1
    7   p-sc-2005                                 0          7         -1
    8   p-sc-2005                                 0          8         -1
    9   p-sc-2005                                 0          9         -1
   10   p-sc-2005                                 0         10         -1
   11   p-sc-2005                                 0         11         -1
   12   p-sc-2005                                 1          0          1
   13   p-sc-2005                                 1          1         -1
   14   p-sc-2005                                 1          2         -1
   15   p-sc-2005                                 1          3         -1
   16   p-sc-2005                                 1          4         -1
   17   p-sc-2005                                 1          5         -1
   18   p-sc-2005                                 1          6         -1
   19   p-sc-2005                                 1          7         -1
 ==============================================================================


May use up to 45383MB of RAM as shared memory on node 0
May use up to 46121MB of RAM as shared memory on node 1

 *******************************************************************************
 *                                                                             *
 *  --------------------------------                                           *
 *   Amsterdam Modeling Suite (AMS)              2022.101                      *
 *  --------------------------------                                           *
 *                                               r102085 2022-02-25            *
 *                                                                             *
 *                                                                             *
 *                              =================                              *
 *                              |               |                              *
 *                              |     A M S     |                              *
 *                              |               |                              *
 *                              =================                              *
 *                                                                             *
 *                                                                             *
 *   Online information and documentation:  https://www.scm.com/support/       *
 *   E-mail:  support@scm.com   info@scm.com                                   *
 *                                                                             *
 *   Scientific publications using AMS results must be properly referenced     *
 *   See the User Manuals (or the web site) for recommended citations          *
 *   The terms and conditions of the End User License Agreement apply to       *
 *   the use of AMS, https://www.scm.com/license-terms/                        *
 *                                                                             *
 ***********************  x86_64_linux_intel / openmpi  ************************
 
 Licensed to: Dr. Adri van Duin / Site license Penn State / University Park / PA / USA 2022-08-02 11:39:07
 SCM User ID: u20919
  
 AMS 2022.101  RunTime: Apr23-2023 01:06:15  ShM Nodes: 2  Procs: 20

 AMS jobname: ams
 AMS jobid  : 961210683

 Start   directory: /scratch/ijc5167/scratch_adf/mode2010.69-mfoib/
 Results directory: /scratch/ijc5167/scratch_adf/mode2010.69-mfoib/ams.results/
 Scratch directory: /scratch/ijc5167/scratch_adf/mode2010.69-mfoib/amstmp_ams_kid0.961210683/


 Communication costs MPI_COMM_WORLD:      3.036 usec per message,   0.0177 usec per 8-byte item
 Communication costs for intra-node:      2.623 usec per message,   0.0211 usec per 8-byte item

 RNG seed: 316900242 1630191007 1249220404 -1823390193 -44029916 738725099 -1435931857 1527696205



                     *************************************************************************
                     *  ADF 2022.101  RunTime: Apr23-2023 01:06:16  ShM Nodes: 2  Procs: 20  *
                     *************************************************************************
  
       ****************************
       * SINGLE POINT CALCULATION *
       ****************************
 
--------
Geometry
--------
Formula: CAg8O
Atoms
  Index Symbol   x (angstrom)   y (angstrom)   z (angstrom)
      1      C     0.45153541    -1.19933987     4.04419482
      2      O     1.09558312    -0.80853920     4.92080337
      3     Ag    -0.00000035    -0.58891846     1.90012055
      4     Ag     1.90012096     0.58891832    -0.00000029
      5     Ag    -0.00000026     2.13289836     1.47110730
      6     Ag    -1.90012120     0.58891839    -0.00000071
      7     Ag     0.00000007     2.13289845    -1.47110820
      8     Ag    -1.47110791    -2.13289843    -0.00000075
      9     Ag    -0.01565954    -0.56413533    -1.92550997
     10     Ag     1.44694803    -2.12704575    -0.03728885
 
Total System Charge             0.00000
 
 
----------------
ADF Engine Input
----------------
 
 Relativity
 Level Scalar
 End
 AORESPONSE
 ALDA True
 HIRSHPOL True
 el_dipole_el_dipole
 end
 basis
 Type TZP
 core Large
 end
 symmetry nosym
 numericalquality Normal
 xc
 GGA Becke88 Perdew86
 DISPERSION Grimme3 BJDAMP
 end
 

 Title: *** (NO TITLE) ***

 *** adf ***



 ===========================
 A T T A C H E D   F I L E S
 ===========================
  



 ===============================
 M O D E L   P A R A M E T E R S
 ===============================
  
 DENSITY FUNCTIONAL POTENTIAL (scf)
    LDA:                               VWN                                      
    Gradient Corrections:              Becke88 Perdew86                        == Not Default ==

 SPIN  (restricted / unrestr.)
    Molecule:                          Restricted                               
    Fragments:                         Restricted                               

 OTHER ASPECTS
    Relativistic Corrections:          scalar (ZORA,MAPA)                       

    Nuclear Charge Density Model:      Point Charge Nuclei                      
    Core Treatment:                    Frozen Orbital(s)                        

    Hyperfine or Zeeman Interaction:   ---                                      

 Settings for Grimme D3 dispersion correction

      damping                        BJ
      s6                          1.000
      s8                          3.282
      a1                          0.395
      a2                          4.852

 Other (technical) parameters

      alpha                      14.000
      version                         4
 


 Fragment File(s)
 ----------------
 C:
         file : /scratch/ijc5167/scratch_adf/mode2010.69-mfoib/ams.results/t21.12976890.C
         jobid: 0
         title: Carbon (TZP, 1s frozen)
 O:
         file : /scratch/ijc5167/scratch_adf/mode2010.69-mfoib/ams.results/t21.5B67203B.O
         jobid: 0
         title: Oxygen (TZP, 1s frozen)
 Ag:
         file : /scratch/ijc5167/scratch_adf/mode2010.69-mfoib/ams.results/t21.4039B022.Ag
         jobid: 0
         title: Silver (TZP, 4p frozen)



 ===============
 G E O M E T R Y  ***  3D  Molecule  ***
 ===============
  

 ATOMS
 =====                            X Y Z                    CHARGE
                                (Angstrom)             Nucl     +Core       At.Mass
                       --------------------------    ----------------       -------
    1  C               0.4515   -1.1993    4.0442      6.00      4.00       12.0000
    2  O               1.0956   -0.8085    4.9208      8.00      6.00       15.9949
    3  Ag             -0.0000   -0.5889    1.9001     47.00     11.00      106.9051
    4  Ag              1.9001    0.5889   -0.0000     47.00     11.00      106.9051
    5  Ag             -0.0000    2.1329    1.4711     47.00     11.00      106.9051
    6  Ag             -1.9001    0.5889   -0.0000     47.00     11.00      106.9051
    7  Ag              0.0000    2.1329   -1.4711     47.00     11.00      106.9051
    8  Ag             -1.4711   -2.1329   -0.0000     47.00     11.00      106.9051
    9  Ag             -0.0157   -0.5641   -1.9255     47.00     11.00      106.9051
   10  Ag              1.4469   -2.1270   -0.0373     47.00     11.00      106.9051


 FRAGMENTS
 =========                                     Atoms in this Fragment     Cart. coord.s (Angstrom)
                                               -------------------------------------------------------
    1  C                                                 1  C            0.4515   -1.1993    4.0442
    2  O                                                 2  O            1.0956   -0.8085    4.9208
    3  Ag                                                3  Ag          -0.0000   -0.5889    1.9001
    4  Ag                                                4  Ag           1.9001    0.5889   -0.0000
    5  Ag                                                5  Ag          -0.0000    2.1329    1.4711
    6  Ag                                                6  Ag          -1.9001    0.5889   -0.0000
    7  Ag                                                7  Ag           0.0000    2.1329   -1.4711
    8  Ag                                                8  Ag          -1.4711   -2.1329   -0.0000
    9  Ag                                                9  Ag          -0.0157   -0.5641   -1.9255
   10  Ag                                               10  Ag           1.4469   -2.1270   -0.0373


 Interatomic Distance Matrix (Angstrom)
 --------------------------------------

   1)     0.000
   2)     1.156   0.000
   3)     2.275   3.221   0.000
   4)     4.653   5.178   2.934   0.000
   5)     4.234   4.664   2.755   2.856   0.000
   6)     5.008   5.928   2.934   3.800   2.856   0.000
   7)     6.460   7.121   4.333   2.856   2.942   2.856   0.000
   8)     4.574   5.706   2.856   4.333   4.746   2.755   4.746   0.000
   9)     6.022   6.940   3.826   2.951   4.337   2.931   2.735   2.879   0.000
  10)     4.302   5.142   2.866   2.754   4.745   4.311   4.722   2.918   2.854   0.000

 Min. Distance =    1.1558
 Max. Distance =    7.1210



 =====================================
 S Y M M E T R Y ,   E L E C T R O N S
 =====================================
  
 Symmetry: NOSYM

 Irreducible Representations, including subspecies
 -------------------------------------------------
 A


 Configuration of Valence Electrons
 ==================================
 ( determined in the SCF procedure )

 Total:   98

 Net Charge: 0 (Nuclei minus Electrons)

 Aufbau principle for MO occupations will be applied through SCF cycle no.     150
 Thereafter, the program will assign electrons to MOs that are spatially
 similar to the occupied MOs in a "reference" cycle ("KeepOrbitals").
 The reference cycle is always the PREVIOUS cycle: it will evolve with
 the SCF procedure.
1
 ***************************************************************************************************



                                      ****************************************
                                      *  B U I L D : (Fragments, Functions)  *
                                      ****************************************
  



 =======
 S F O s  ***  (Symmetrized Fragment Orbitals)  ***
 =======
  
 SFOs are linear combinations of (valence) Fragment Orbitals (FOs), such that the SFOs transform as the
 irreducible representations of the (molecular) symmetry group. Each SFO is therefore characterized by
 an irrep of the molecule and by a few (or only one) generating FOs.
 The SFOs constitute a symmetry-adapted basis for the Fock matrix. The MO eigenvector coefficients in
 this basis provide a direct interpretation of the MOs in terms of Frontier Orbital Theory.

 The SFOs are combined with auxiliary Core Functions (CFs) to ensure orthogonalization on the (frozen)
 Core Orbitals (COs). The Core-orthogonalized SFOs (CSFOs) constitute the true Fock basis.

 The FOs, and hence also the (C)SFOs are combinations of the elementary basis functions (BAS). The basis
 functions that participate in the description of the SFOs depend on the irrep. The indices of the
 involved functions are printed below for each irrep.
 (The complete list of primitive basis functions is printed in another section)

 Total nr. of (C)SFOs (summation over all irreps) :   202

 NOTE: a (C)SFO that is defined as a combination of more than one FO is usually NOT normalized.



                                       === A ===
 Nr. of SFOs :  202
 Cartesian basis functions that participate in this irrep (total number =   382) :
      1    20    39    40    41    42    43    46    49    44
     47    50    45    48    51    52    53    54    55    56
     57    82    83    84    85    86    89    92    87    90
     93    88    91    94    95    96    97    98    99   100
    125   126   127   128   129   132   135   130   133   136
    131   134   137   138   139   140   141   142   143   168
    169   170   171   172   175   178   173   176   179   174
    177   180   181   182   183   184   185   186   211   212
    213   214   215   218   221   216   219   222   217   220
    223   224   225   226   227   228   229   254   255   256
    257   258   261   264   259   262   265   260   263   266
    267   268   269   270   271   272   297   298   299   300
    301   304   307   302   305   308   303   306   309   310
    311   312   313   314   315   340   341   342   343   344
    347   350   345   348   351   346   349   352   353   354
    355   356   357   358     2     3     4     5     8    11
      6     9    12     7    10    13    14    15    16    17
     18    19    21    22    23    24    27    30    25    28
     31    26    29    32    33    34    35    36    37    38
     58    59    60    79    80    81    61    67    73    62
     68    74    63    69    75    64    70    76    65    71
     77    66    72    78   101   102   103   122   123   124
    104   110   116   105   111   117   106   112   118   107
    113   119   108   114   120   109   115   121   144   145
    146   165   166   167   147   153   159   148   154   160
    149   155   161   150   156   162   151   157   163   152
    158   164   187   188   189   208   209   210   190   196
    202   191   197   203   192   198   204   193   199   205
    194   200   206   195   201   207   230   231   232   251
    252   253   233   239   245   234   240   246   235   241
    247   236   242   248   237   243   249   238   244   250
    273   274   275   294   295   296   276   282   288   277
    283   289   278   284   290   279   285   291   280   286
    292   281   287   293   316   317   318   337   338   339
    319   325   331   320   326   332   321   327   333   322
    328   334   323   329   335   324   330   336   359   360
    361   380   381   382   362   368   374   363   369   375
    364   370   376   365   371   377   366   372   378   367
    373   379

    SFO  (index         Fragment          Generating    Expansion in Fragment Orbitals
  indx  incl.CFs)   Occup   Orb.Energy   FragmentType  Coeff.   Orbital     on Fragment
 --------------------------------------------------------------------------------------
     1     155      2.000      -0.511 au  C             1.00      1 S               1
                        (     -13.915 eV)
     2     156       --         0.428 au  C             1.00      2 S               1
                        (      11.654 eV)
     3     157       --         9.927 au  C             1.00      3 S               1
                        (     270.139 eV)
     4     158      0.667      -0.199 au  C             1.00      1 P:x             1
                        (      -5.426 eV)
     5     159       --         0.173 au  C             1.00      2 P:x             1
                        (       4.695 eV)
     6     160       --         2.022 au  C             1.00      3 P:x             1
                        (      55.030 eV)
     7     161      0.667      -0.199 au  C             1.00      1 P:y             1
                        (      -5.426 eV)
     8     162       --         0.173 au  C             1.00      2 P:y             1
                        (       4.695 eV)
     9     163       --         2.022 au  C             1.00      3 P:y             1
                        (      55.030 eV)
    10     164      0.667      -0.199 au  C             1.00      1 P:z             1
                        (      -5.426 eV)
    11     165       --         0.173 au  C             1.00      2 P:z             1
                        (       4.695 eV)
    12     166       --         2.022 au  C             1.00      3 P:z             1
                        (      55.030 eV)
    13     167       --         1.231 au  C             1.00      1 D:z2            1
                        (      33.508 eV)
    14     168       --         1.231 au  C             1.00      1 D:x2-y2         1
                        (      33.508 eV)
    15     169       --         1.231 au  C             1.00      1 D:xy            1
                        (      33.508 eV)
    16     170       --         1.231 au  C             1.00      1 D:xz            1
                        (      33.508 eV)
    17     171       --         1.231 au  C             1.00      1 D:yz            1
                        (      33.508 eV)
    18     172      2.000      -0.887 au  O             1.00      1 S               2
                        (     -24.141 eV)
    19     173       --         0.898 au  O             1.00      2 S               2
                        (      24.443 eV)
    20     174       --        29.557 au  O             1.00      3 S               2
                        (     804.274 eV)
    21     175      1.333      -0.338 au  O             1.00      1 P:x             2
                        (      -9.204 eV)
    22     176       --         0.354 au  O             1.00      2 P:x             2
                        (       9.644 eV)
    23     177       --         3.829 au  O             1.00      3 P:x             2
                        (     104.202 eV)
    24     178      1.333      -0.338 au  O             1.00      1 P:y             2
                        (      -9.204 eV)
    25     179       --         0.354 au  O             1.00      2 P:y             2
                        (       9.644 eV)
    26     180       --         3.829 au  O             1.00      3 P:y             2
                        (     104.202 eV)
    27     181      1.333      -0.338 au  O             1.00      1 P:z             2
                        (      -9.204 eV)
    28     182       --         0.354 au  O             1.00      2 P:z             2
                        (       9.644 eV)
    29     183       --         3.829 au  O             1.00      3 P:z             2
                        (     104.202 eV)
    30     184       --         1.061 au  O             1.00      1 D:z2            2
                        (      28.861 eV)
    31     185       --         1.061 au  O             1.00      1 D:x2-y2         2
                        (      28.861 eV)
    32     186       --         1.061 au  O             1.00      1 D:xy            2
                        (      28.861 eV)
    33     187       --         1.061 au  O             1.00      1 D:xz            2
                        (      28.861 eV)
    34     188       --         1.061 au  O             1.00      1 D:yz            2
                        (      28.861 eV)
    35     189      1.000      -0.167 au  Ag            1.00      1 S               3
                        (      -4.550 eV)
    36     190       --         0.050 au  Ag            1.00      2 S               3
                        (       1.356 eV)
    37     191       --         0.590 au  Ag            1.00      3 S               3
                        (      16.061 eV)
    38     192       --         0.013 au  Ag            1.00      1 P:x             3
                        (       0.354 eV)
    39     193       --         0.013 au  Ag            1.00      1 P:y             3
                        (       0.354 eV)
    40     194       --         0.013 au  Ag            1.00      1 P:z             3
                        (       0.354 eV)
    41     195      2.000      -0.277 au  Ag            1.00      1 D:z2            3
                        (      -7.546 eV)
    42     196       --         0.294 au  Ag            1.00      2 D:z2            3
                        (       8.000 eV)
    43     197       --         2.230 au  Ag            1.00      3 D:z2            3
                        (      60.692 eV)
    44     198      2.000      -0.277 au  Ag            1.00      1 D:x2-y2         3
                        (      -7.546 eV)
    45     199       --         0.294 au  Ag            1.00      2 D:x2-y2         3
                        (       8.000 eV)
    46     200       --         2.230 au  Ag            1.00      3 D:x2-y2         3
                        (      60.692 eV)
    47     201      2.000      -0.277 au  Ag            1.00      1 D:xy            3
                        (      -7.546 eV)
    48     202       --         0.294 au  Ag            1.00      2 D:xy            3
                        (       8.000 eV)
    49     203       --         2.230 au  Ag            1.00      3 D:xy            3
                        (      60.692 eV)
    50     204      2.000      -0.277 au  Ag            1.00      1 D:xz            3
                        (      -7.546 eV)
    51     205       --         0.294 au  Ag            1.00      2 D:xz            3
                        (       8.000 eV)
    52     206       --         2.230 au  Ag            1.00      3 D:xz            3
                        (      60.692 eV)
    53     207      2.000      -0.277 au  Ag            1.00      1 D:yz            3
                        (      -7.546 eV)
    54     208       --         0.294 au  Ag            1.00      2 D:yz            3
                        (       8.000 eV)
    55     209       --         2.230 au  Ag            1.00      3 D:yz            3
                        (      60.692 eV)
    56     210      1.000      -0.167 au  Ag            1.00      1 S               4
                        (      -4.550 eV)
    57     211       --         0.050 au  Ag            1.00      2 S               4
                        (       1.356 eV)
    58     212       --         0.590 au  Ag            1.00      3 S               4
                        (      16.061 eV)
    59     213       --         0.013 au  Ag            1.00      1 P:x             4
                        (       0.354 eV)
    60     214       --         0.013 au  Ag            1.00      1 P:y             4
                        (       0.354 eV)
    61     215       --         0.013 au  Ag            1.00      1 P:z             4
                        (       0.354 eV)
    62     216      2.000      -0.277 au  Ag            1.00      1 D:z2            4
                        (      -7.546 eV)
    63     217       --         0.294 au  Ag            1.00      2 D:z2            4
                        (       8.000 eV)
    64     218       --         2.230 au  Ag            1.00      3 D:z2            4
                        (      60.692 eV)
    65     219      2.000      -0.277 au  Ag            1.00      1 D:x2-y2         4
                        (      -7.546 eV)
    66     220       --         0.294 au  Ag            1.00      2 D:x2-y2         4
                        (       8.000 eV)
    67     221       --         2.230 au  Ag            1.00      3 D:x2-y2         4
                        (      60.692 eV)
    68     222      2.000      -0.277 au  Ag            1.00      1 D:xy            4
                        (      -7.546 eV)
    69     223       --         0.294 au  Ag            1.00      2 D:xy            4
                        (       8.000 eV)
    70     224       --         2.230 au  Ag            1.00      3 D:xy            4
                        (      60.692 eV)
    71     225      2.000      -0.277 au  Ag            1.00      1 D:xz            4
                        (      -7.546 eV)
    72     226       --         0.294 au  Ag            1.00      2 D:xz            4
                        (       8.000 eV)
    73     227       --         2.230 au  Ag            1.00      3 D:xz            4
                        (      60.692 eV)
    74     228      2.000      -0.277 au  Ag            1.00      1 D:yz            4
                        (      -7.546 eV)
    75     229       --         0.294 au  Ag            1.00      2 D:yz            4
                        (       8.000 eV)
    76     230       --         2.230 au  Ag            1.00      3 D:yz            4
                        (      60.692 eV)
    77     231      1.000      -0.167 au  Ag            1.00      1 S               5
                        (      -4.550 eV)
    78     232       --         0.050 au  Ag            1.00      2 S               5
                        (       1.356 eV)
    79     233       --         0.590 au  Ag            1.00      3 S               5
                        (      16.061 eV)
    80     234       --         0.013 au  Ag            1.00      1 P:x             5
                        (       0.354 eV)
    81     235       --         0.013 au  Ag            1.00      1 P:y             5
                        (       0.354 eV)
    82     236       --         0.013 au  Ag            1.00      1 P:z             5
                        (       0.354 eV)
    83     237      2.000      -0.277 au  Ag            1.00      1 D:z2            5
                        (      -7.546 eV)
    84     238       --         0.294 au  Ag            1.00      2 D:z2            5
                        (       8.000 eV)
    85     239       --         2.230 au  Ag            1.00      3 D:z2            5
                        (      60.692 eV)
    86     240      2.000      -0.277 au  Ag            1.00      1 D:x2-y2         5
                        (      -7.546 eV)
    87     241       --         0.294 au  Ag            1.00      2 D:x2-y2         5
                        (       8.000 eV)
    88     242       --         2.230 au  Ag            1.00      3 D:x2-y2         5
                        (      60.692 eV)
    89     243      2.000      -0.277 au  Ag            1.00      1 D:xy            5
                        (      -7.546 eV)
    90     244       --         0.294 au  Ag            1.00      2 D:xy            5
                        (       8.000 eV)
    91     245       --         2.230 au  Ag            1.00      3 D:xy            5
                        (      60.692 eV)
    92     246      2.000      -0.277 au  Ag            1.00      1 D:xz            5
                        (      -7.546 eV)
    93     247       --         0.294 au  Ag            1.00      2 D:xz            5
                        (       8.000 eV)
    94     248       --         2.230 au  Ag            1.00      3 D:xz            5
                        (      60.692 eV)
    95     249      2.000      -0.277 au  Ag            1.00      1 D:yz            5
                        (      -7.546 eV)
    96     250       --         0.294 au  Ag            1.00      2 D:yz            5
                        (       8.000 eV)
    97     251       --         2.230 au  Ag            1.00      3 D:yz            5
                        (      60.692 eV)
    98     252      1.000      -0.167 au  Ag            1.00      1 S               6
                        (      -4.550 eV)
    99     253       --         0.050 au  Ag            1.00      2 S               6
                        (       1.356 eV)
   100     254       --         0.590 au  Ag            1.00      3 S               6
                        (      16.061 eV)
   101     255       --         0.013 au  Ag            1.00      1 P:x             6
                        (       0.354 eV)
   102     256       --         0.013 au  Ag            1.00      1 P:y             6
                        (       0.354 eV)
   103     257       --         0.013 au  Ag            1.00      1 P:z             6
                        (       0.354 eV)
   104     258      2.000      -0.277 au  Ag            1.00      1 D:z2            6
                        (      -7.546 eV)
   105     259       --         0.294 au  Ag            1.00      2 D:z2            6
                        (       8.000 eV)
   106     260       --         2.230 au  Ag            1.00      3 D:z2            6
                        (      60.692 eV)
   107     261      2.000      -0.277 au  Ag            1.00      1 D:x2-y2         6
                        (      -7.546 eV)
   108     262       --         0.294 au  Ag            1.00      2 D:x2-y2         6
                        (       8.000 eV)
   109     263       --         2.230 au  Ag            1.00      3 D:x2-y2         6
                        (      60.692 eV)
   110     264      2.000      -0.277 au  Ag            1.00      1 D:xy            6
                        (      -7.546 eV)
   111     265       --         0.294 au  Ag            1.00      2 D:xy            6
                        (       8.000 eV)
   112     266       --         2.230 au  Ag            1.00      3 D:xy            6
                        (      60.692 eV)
   113     267      2.000      -0.277 au  Ag            1.00      1 D:xz            6
                        (      -7.546 eV)
   114     268       --         0.294 au  Ag            1.00      2 D:xz            6
                        (       8.000 eV)
   115     269       --         2.230 au  Ag            1.00      3 D:xz            6
                        (      60.692 eV)
   116     270      2.000      -0.277 au  Ag            1.00      1 D:yz            6
                        (      -7.546 eV)
   117     271       --         0.294 au  Ag            1.00      2 D:yz            6
                        (       8.000 eV)
   118     272       --         2.230 au  Ag            1.00      3 D:yz            6
                        (      60.692 eV)
   119     273      1.000      -0.167 au  Ag            1.00      1 S               7
                        (      -4.550 eV)
   120     274       --         0.050 au  Ag            1.00      2 S               7
                        (       1.356 eV)
   121     275       --         0.590 au  Ag            1.00      3 S               7
                        (      16.061 eV)
   122     276       --         0.013 au  Ag            1.00      1 P:x             7
                        (       0.354 eV)
   123     277       --         0.013 au  Ag            1.00      1 P:y             7
                        (       0.354 eV)
   124     278       --         0.013 au  Ag            1.00      1 P:z             7
                        (       0.354 eV)
   125     279      2.000      -0.277 au  Ag            1.00      1 D:z2            7
                        (      -7.546 eV)
   126     280       --         0.294 au  Ag            1.00      2 D:z2            7
                        (       8.000 eV)
   127     281       --         2.230 au  Ag            1.00      3 D:z2            7
                        (      60.692 eV)
   128     282      2.000      -0.277 au  Ag            1.00      1 D:x2-y2         7
                        (      -7.546 eV)
   129     283       --         0.294 au  Ag            1.00      2 D:x2-y2         7
                        (       8.000 eV)
   130     284       --         2.230 au  Ag            1.00      3 D:x2-y2         7
                        (      60.692 eV)
   131     285      2.000      -0.277 au  Ag            1.00      1 D:xy            7
                        (      -7.546 eV)
   132     286       --         0.294 au  Ag            1.00      2 D:xy            7
                        (       8.000 eV)
   133     287       --         2.230 au  Ag            1.00      3 D:xy            7
                        (      60.692 eV)
   134     288      2.000      -0.277 au  Ag            1.00      1 D:xz            7
                        (      -7.546 eV)
   135     289       --         0.294 au  Ag            1.00      2 D:xz            7
                        (       8.000 eV)
   136     290       --         2.230 au  Ag            1.00      3 D:xz            7
                        (      60.692 eV)
   137     291      2.000      -0.277 au  Ag            1.00      1 D:yz            7
                        (      -7.546 eV)
   138     292       --         0.294 au  Ag            1.00      2 D:yz            7
                        (       8.000 eV)
   139     293       --         2.230 au  Ag            1.00      3 D:yz            7
                        (      60.692 eV)
   140     294      1.000      -0.167 au  Ag            1.00      1 S               8
                        (      -4.550 eV)
   141     295       --         0.050 au  Ag            1.00      2 S               8
                        (       1.356 eV)
   142     296       --         0.590 au  Ag            1.00      3 S               8
                        (      16.061 eV)
   143     297       --         0.013 au  Ag            1.00      1 P:x             8
                        (       0.354 eV)
   144     298       --         0.013 au  Ag            1.00      1 P:y             8
                        (       0.354 eV)
   145     299       --         0.013 au  Ag            1.00      1 P:z             8
                        (       0.354 eV)
   146     300      2.000      -0.277 au  Ag            1.00      1 D:z2            8
                        (      -7.546 eV)
   147     301       --         0.294 au  Ag            1.00      2 D:z2            8
                        (       8.000 eV)
   148     302       --         2.230 au  Ag            1.00      3 D:z2            8
                        (      60.692 eV)
   149     303      2.000      -0.277 au  Ag            1.00      1 D:x2-y2         8
                        (      -7.546 eV)
   150     304       --         0.294 au  Ag            1.00      2 D:x2-y2         8
                        (       8.000 eV)
   151     305       --         2.230 au  Ag            1.00      3 D:x2-y2         8
                        (      60.692 eV)
   152     306      2.000      -0.277 au  Ag            1.00      1 D:xy            8
                        (      -7.546 eV)
   153     307       --         0.294 au  Ag            1.00      2 D:xy            8
                        (       8.000 eV)
   154     308       --         2.230 au  Ag            1.00      3 D:xy            8
                        (      60.692 eV)
   155     309      2.000      -0.277 au  Ag            1.00      1 D:xz            8
                        (      -7.546 eV)
   156     310       --         0.294 au  Ag            1.00      2 D:xz            8
                        (       8.000 eV)
   157     311       --         2.230 au  Ag            1.00      3 D:xz            8
                        (      60.692 eV)
   158     312      2.000      -0.277 au  Ag            1.00      1 D:yz            8
                        (      -7.546 eV)
   159     313       --         0.294 au  Ag            1.00      2 D:yz            8
                        (       8.000 eV)
   160     314       --         2.230 au  Ag            1.00      3 D:yz            8
                        (      60.692 eV)
   161     315      1.000      -0.167 au  Ag            1.00      1 S               9
                        (      -4.550 eV)
   162     316       --         0.050 au  Ag            1.00      2 S               9
                        (       1.356 eV)
   163     317       --         0.590 au  Ag            1.00      3 S               9
                        (      16.061 eV)
   164     318       --         0.013 au  Ag            1.00      1 P:x             9
                        (       0.354 eV)
   165     319       --         0.013 au  Ag            1.00      1 P:y             9
                        (       0.354 eV)
   166     320       --         0.013 au  Ag            1.00      1 P:z             9
                        (       0.354 eV)
   167     321      2.000      -0.277 au  Ag            1.00      1 D:z2            9
                        (      -7.546 eV)
   168     322       --         0.294 au  Ag            1.00      2 D:z2            9
                        (       8.000 eV)
   169     323       --         2.230 au  Ag            1.00      3 D:z2            9
                        (      60.692 eV)
   170     324      2.000      -0.277 au  Ag            1.00      1 D:x2-y2         9
                        (      -7.546 eV)
   171     325       --         0.294 au  Ag            1.00      2 D:x2-y2         9
                        (       8.000 eV)
   172     326       --         2.230 au  Ag            1.00      3 D:x2-y2         9
                        (      60.692 eV)
   173     327      2.000      -0.277 au  Ag            1.00      1 D:xy            9
                        (      -7.546 eV)
   174     328       --         0.294 au  Ag            1.00      2 D:xy            9
                        (       8.000 eV)
   175     329       --         2.230 au  Ag            1.00      3 D:xy            9
                        (      60.692 eV)
   176     330      2.000      -0.277 au  Ag            1.00      1 D:xz            9
                        (      -7.546 eV)
   177     331       --         0.294 au  Ag            1.00      2 D:xz            9
                        (       8.000 eV)
   178     332       --         2.230 au  Ag            1.00      3 D:xz            9
                        (      60.692 eV)
   179     333      2.000      -0.277 au  Ag            1.00      1 D:yz            9
                        (      -7.546 eV)
   180     334       --         0.294 au  Ag            1.00      2 D:yz            9
                        (       8.000 eV)
   181     335       --         2.230 au  Ag            1.00      3 D:yz            9
                        (      60.692 eV)
   182     336      1.000      -0.167 au  Ag            1.00      1 S              10
                        (      -4.550 eV)
   183     337       --         0.050 au  Ag            1.00      2 S              10
                        (       1.356 eV)
   184     338       --         0.590 au  Ag            1.00      3 S              10
                        (      16.061 eV)
   185     339       --         0.013 au  Ag            1.00      1 P:x            10
                        (       0.354 eV)
   186     340       --         0.013 au  Ag            1.00      1 P:y            10
                        (       0.354 eV)
   187     341       --         0.013 au  Ag            1.00      1 P:z            10
                        (       0.354 eV)
   188     342      2.000      -0.277 au  Ag            1.00      1 D:z2           10
                        (      -7.546 eV)
   189     343       --         0.294 au  Ag            1.00      2 D:z2           10
                        (       8.000 eV)
   190     344       --         2.230 au  Ag            1.00      3 D:z2           10
                        (      60.692 eV)
   191     345      2.000      -0.277 au  Ag            1.00      1 D:x2-y2        10
                        (      -7.546 eV)
   192     346       --         0.294 au  Ag            1.00      2 D:x2-y2        10
                        (       8.000 eV)
   193     347       --         2.230 au  Ag            1.00      3 D:x2-y2        10
                        (      60.692 eV)
   194     348      2.000      -0.277 au  Ag            1.00      1 D:xy           10
                        (      -7.546 eV)
   195     349       --         0.294 au  Ag            1.00      2 D:xy           10
                        (       8.000 eV)
   196     350       --         2.230 au  Ag            1.00      3 D:xy           10
                        (      60.692 eV)
   197     351      2.000      -0.277 au  Ag            1.00      1 D:xz           10
                        (      -7.546 eV)
   198     352       --         0.294 au  Ag            1.00      2 D:xz           10
                        (       8.000 eV)
   199     353       --         2.230 au  Ag            1.00      3 D:xz           10
                        (      60.692 eV)
   200     354      2.000      -0.277 au  Ag            1.00      1 D:yz           10
                        (      -7.546 eV)
   201     355       --         0.294 au  Ag            1.00      2 D:yz           10
                        (       8.000 eV)
   202     356       --         2.230 au  Ag            1.00      3 D:yz           10
                        (      60.692 eV)



 ================================
 (Slater-type)  F U N C T I O N S  ***  (Basis and Fit)  ***
 ================================
  

 Atom Type    1  (C)
 ==============

 Valence Basis Sets:   8
 -----------------------
   1 S    5.400000
   2 S    1.280000
   2 S    2.100000
   2 S    4.600000
   2 P    0.820000
   2 P    1.480000
   2 P    2.940000
   3 D    2.200000

 Frozen Core Shells
 ------------------
    S:  1

 Atom Type    2  (O)
 ==============

 Valence Basis Sets:   8
 -----------------------
   1 S    7.360000
   2 S    1.720000
   2 S    2.880000
   2 S    7.580000
   2 P    1.120000
   2 P    2.080000
   2 P    4.080000
   3 D    2.000000

 Frozen Core Shells
 ------------------
    S:  1

 Atom Type    3  (Ag)
 ==============

 Valence Basis Sets:  15
 -----------------------
   1 S   30.800000
   2 S   20.300000
   3 S    9.550000
   4 S    5.950000
   2 P   21.100000
   3 P   10.100000
   4 P    4.450000
   3 D   11.650000
   5 S    2.600000
   5 S    1.550000
   5 S    0.950000
   4 D    4.750000
   4 D    2.600000
   4 D    1.380000
   5 P    1.550000

 Frozen Core Shells
 ------------------
    S:  4
    P:  3
    D:  1


 BAS: List of all Elementary Cartesian Basis Functions
 =====================================================

 The numbering in the list below (to the right of the function characteristics) is referred
 to in print-outs of MO eigenvectors and Mulliken populations in the BAS representation
 (as contrasted to the SFO representation).

 Notes:
 1. The functions are characterized by a polynomial prefactor (powers of x,y,z and r) and
    an exponential decay factor alpha.
 2. Since the basis sets are specific for an atom TYPE, the individual functions occur on
    all atoms of that type.
 3. The word 'Core' in the left margin signals that it is a Core Function (CF) : not a
    degree of freedom in the valence set, but only used to ensure orthogonalization of
    the other valence basis functions on the frozen Core Orbitals.


 (power of) X  Y  Z  R     Alpha  on Atom
            ==========     =====     ==========

 C                                    1
                                  ---------------------------------------------------------------------------
    Core    0  0  0  0     5.400      1
            0  0  0  1     1.280      2
            0  0  0  1     2.100      3
            0  0  0  1     4.600      4
            1  0  0  0     0.820      5
            0  1  0  0     0.820      6
            0  0  1  0     0.820      7
            1  0  0  0     1.480      8
            0  1  0  0     1.480      9
            0  0  1  0     1.480     10
            1  0  0  0     2.940     11
            0  1  0  0     2.940     12
            0  0  1  0     2.940     13
            2  0  0  0     2.200     14
            1  1  0  0     2.200     15
            1  0  1  0     2.200     16
            0  2  0  0     2.200     17
            0  1  1  0     2.200     18
            0  0  2  0     2.200     19

 O                                    2
                                  ---------------------------------------------------------------------------
    Core    0  0  0  0     7.360     20
            0  0  0  1     1.720     21
            0  0  0  1     2.880     22
            0  0  0  1     7.580     23
            1  0  0  0     1.120     24
            0  1  0  0     1.120     25
            0  0  1  0     1.120     26
            1  0  0  0     2.080     27
            0  1  0  0     2.080     28
            0  0  1  0     2.080     29
            1  0  0  0     4.080     30
            0  1  0  0     4.080     31
            0  0  1  0     4.080     32
            2  0  0  0     2.000     33
            1  1  0  0     2.000     34
            1  0  1  0     2.000     35
            0  2  0  0     2.000     36
            0  1  1  0     2.000     37
            0  0  2  0     2.000     38

 Ag                                   3    4    5    6    7    8    9   10
                                  ---------------------------------------------------------------------------
    Core    0  0  0  0    30.800     39   82  125  168  211  254  297  340
    Core    0  0  0  1    20.300     40   83  126  169  212  255  298  341
    Core    0  0  0  2     9.550     41   84  127  170  213  256  299  342
    Core    0  0  0  3     5.950     42   85  128  171  214  257  300  343
    Core    1  0  0  0    21.100     43   86  129  172  215  258  301  344
    Core    0  1  0  0    21.100     44   87  130  173  216  259  302  345
    Core    0  0  1  0    21.100     45   88  131  174  217  260  303  346
    Core    1  0  0  1    10.100     46   89  132  175  218  261  304  347
    Core    0  1  0  1    10.100     47   90  133  176  219  262  305  348
    Core    0  0  1  1    10.100     48   91  134  177  220  263  306  349
    Core    1  0  0  2     4.450     49   92  135  178  221  264  307  350
    Core    0  1  0  2     4.450     50   93  136  179  222  265  308  351
    Core    0  0  1  2     4.450     51   94  137  180  223  266  309  352
    Core    2  0  0  0    11.650     52   95  138  181  224  267  310  353
    Core    1  1  0  0    11.650     53   96  139  182  225  268  311  354
    Core    1  0  1  0    11.650     54   97  140  183  226  269  312  355
    Core    0  2  0  0    11.650     55   98  141  184  227  270  313  356
    Core    0  1  1  0    11.650     56   99  142  185  228  271  314  357
    Core    0  0  2  0    11.650     57  100  143  186  229  272  315  358
            0  0  0  4     2.600     58  101  144  187  230  273  316  359
            0  0  0  4     1.550     59  102  145  188  231  274  317  360
            0  0  0  4     0.950     60  103  146  189  232  275  318  361
            2  0  0  1     4.750     61  104  147  190  233  276  319  362
            1  1  0  1     4.750     62  105  148  191  234  277  320  363
            1  0  1  1     4.750     63  106  149  192  235  278  321  364
            0  2  0  1     4.750     64  107  150  193  236  279  322  365
            0  1  1  1     4.750     65  108  151  194  237  280  323  366
            0  0  2  1     4.750     66  109  152  195  238  281  324  367
            2  0  0  1     2.600     67  110  153  196  239  282  325  368
            1  1  0  1     2.600     68  111  154  197  240  283  326  369
            1  0  1  1     2.600     69  112  155  198  241  284  327  370
            0  2  0  1     2.600     70  113  156  199  242  285  328  371
            0  1  1  1     2.600     71  114  157  200  243  286  329  372
            0  0  2  1     2.600     72  115  158  201  244  287  330  373
            2  0  0  1     1.380     73  116  159  202  245  288  331  374
            1  1  0  1     1.380     74  117  160  203  246  289  332  375
            1  0  1  1     1.380     75  118  161  204  247  290  333  376
            0  2  0  1     1.380     76  119  162  205  248  291  334  377
            0  1  1  1     1.380     77  120  163  206  249  292  335  378
            0  0  2  1     1.380     78  121  164  207  250  293  336  379
            1  0  0  3     1.550     79  122  165  208  251  294  337  380
            0  1  0  3     1.550     80  123  166  209  252  295  338  381
            0  0  1  3     1.550     81  124  167  210  253  296  339  382

 Total number of charge fitting functions (nprimf)      1884
 Total number of Cartesian basis functions (naos)        382
 Total number of Cartesian core functions  (ncos)        154

1
 ***************************************************************************************************



                                              ***********************
                                              *  T E C H N I C A L  *
                                              ***********************
  



 =============================================================
 P A R A L L E L I Z A T I O N  and  V E C T O R I Z A T I O N
 =============================================================
  
 Nr of parallel processes:                               20
 Maximum vector length in NumInt loops:                 128



 =====================
 S C F   U P D A T E S
 =====================
  
 Max. nr. of cycles:                               300
 Convergence criterion:                              0.0000010000
   secondary criterion:                              0.0010000000

 Mix parameter (when DIIS does not apply):           0.2000000000
 Mixed ADIIS+SDIIS will be used                  
    Max number of expansion vectors:                10
    Pure ADIIS when Max([F,P]) is above              0.1000000000
    Pure SDIIS when Max([F,P]) is below              0.0010000000
 Automatic ElectronSmearing (in case of problematic SCF convergence) disabled



 =================
 P R E C I S I O N  ***  (General: NumInt, NeglectFunctionTails, ...)  ***
 =================
  

 NumInt:           Target precision:                 4.0000000000
 -------           Initial precision:                4.0000000000
                   Min. precision (optimization):    4.0000000000

 Neglect Functions:          Basis functions:        0.1000000000E-13
 ------------------          Fit functions:          0.1000000000E-13



 ===========================
 L I N E A R   S C A L I N G
 ===========================
  

 Cut-off radii density fit:                        0.1000000000E-07
 Overlap cut-off criterion AO matrix elements:     0.1000000000E-05
 Cut-offs for Coulomb potential and fitted density:0.1000000000E-07
 Cut-off criterion for Coulomb multipole terms:    0.1000000000E-07
 Progressive Convergence parameter:                 0.000000000    
1
 ***************************************************************************************************



                                            ***************************
                                            *  C O M P U T A T I O N  *
                                            ***************************
  

 Number of elements of the density matrix on this node (used, total):      4102     73153



 ===========================================
 Numerical Integration : Fuzzy Cells (Becke)
 ===========================================
  
 Becke grid quality: NORMAL         
  
 Lebedev angular grid order:             min:  11 max:  23
 Nr. of radial points:                   min:  49 max:  83

 Total nr. of points:      97932
 Nr. of blocks:              766
 Block length:               128
 Nr. of dummy points:        116


 Test of Precision of the Numerical Integration Grid
 ===================================================

 Integral of the Total Core Density:                 291.99998558672291
 Relative Error:                                      -4.936E-08



 ========================
 Density Fitting (zlmFit)
 ========================
  
 ZlmFit Fit Quality: NORMAL         
  
 Max L-expansion:                        min:   6 max:   6
 Nr. of radial interpolation points:     min:  42 max:  69



 =====
 S C F  ***  ScaSCF  ***
 =====
  
 Initial density matrix is calculated as sum of fragments

 CYCLE    1
 SCF Error: norm([F,P])=      1.105700870690, max([F,P])=      0.397424254771
 orbitals (Q,E):
 ---------------
 A :40...59          ( 2.00    -0.2656)  ( 2.00    -0.2644)  ( 2.00    -0.2631)  ( 2.00    -0.2630)
                     ( 2.00    -0.2627)  ( 2.00    -0.2614)  ( 2.00    -0.2605)  ( 2.00    -0.2135)
                     ( 2.00    -0.1946)  ( 2.00    -0.1908)  ( 0.00    -0.1456)  ( 0.00    -0.1444)
                     ( 0.00    -0.1165)  ( 0.00    -0.1142)  ( 0.00    -0.1108)  ( 0.00    -0.0897)
                     ( 0.00    -0.0643)  ( 0.00    -0.0554)  ( 0.00    -0.0262)  ( 0.00    -0.0162)

 CYCLE    2
  SDIIS (wt  0.000):  0.3526  0.6474
 A-DIIS (wt  1.000):  0.0000  1.0000
  DIIS coefficients:  0.0000  1.0000
 SCF Error: norm([F,P])=      0.753351312762, max([F,P])=      0.157394287013
 orbitals (Q,E):
 ---------------
 A :40...50          ( 2.00    -0.2929)  ( 2.00    -0.2924)  ( 2.00    -0.2900)  ( 2.00    -0.2883)
                     ( 2.00    -0.2273)  ( 2.00    -0.2167)  ( 2.00    -0.2057)  ( 2.00    -0.1950)
                     ( 2.00    -0.1892)  ( 2.00    -0.1730)  ( 0.00    -0.1324)

 CYCLE    3
  SDIIS (wt  0.000):  0.1005  0.6629  0.2366
 A-DIIS (wt  1.000):  0.0000  0.7923  0.2077
  DIIS coefficients:  0.0000  0.7923  0.2077
 SCF Error: norm([F,P])=      1.856931484154, max([F,P])=      0.607316260036
 orbitals (Q,E):
 ---------------
 A :40...50          ( 2.00    -0.2738)  ( 2.00    -0.2718)  ( 2.00    -0.2713)  ( 2.00    -0.2695)
                     ( 2.00    -0.2686)  ( 2.00    -0.2670)  ( 2.00    -0.2561)  ( 2.00    -0.2100)
                     ( 2.00    -0.1840)  ( 2.00    -0.1703)  ( 0.00    -0.1189)

 CYCLE    4
  SDIIS (wt  0.042):  0.4453  0.0827  0.4720
 A-DIIS (wt  0.958):  0.3505  0.0000  0.6495
  DIIS coefficients:  0.3545  0.0035  0.6420
 SCF Error: norm([F,P])=      0.465645777809, max([F,P])=      0.095815920757
 orbitals (Q,E):
 ---------------
 A :40...50          ( 2.00    -0.2607)  ( 2.00    -0.2598)  ( 2.00    -0.2586)  ( 2.00    -0.2561)
                     ( 2.00    -0.2551)  ( 2.00    -0.2545)  ( 2.00    -0.2527)  ( 2.00    -0.2047)
                     ( 2.00    -0.1825)  ( 2.00    -0.1743)  ( 0.00    -0.1194)

 CYCLE    5
  SDIIS (wt  0.000):  0.2138 -0.0517  0.5145  0.3234
 A-DIIS (wt  1.000):  0.1902  0.0000  0.4424  0.3674
  DIIS coefficients:  0.1902  0.0000  0.4424  0.3674
 SCF Error: norm([F,P])=      0.487605893456, max([F,P])=      0.170499463867
 orbitals (Q,E):
 ---------------
 A :40...50          ( 2.00    -0.2646)  ( 2.00    -0.2637)  ( 2.00    -0.2619)  ( 2.00    -0.2613)
                     ( 2.00    -0.2604)  ( 2.00    -0.2589)  ( 2.00    -0.2564)  ( 2.00    -0.2059)
                     ( 2.00    -0.1822)  ( 2.00    -0.1751)  ( 0.00    -0.1160)

 CYCLE    6
  SDIIS (wt  0.000):  0.0528 -0.0200  0.2765  0.3394  0.3513
 A-DIIS (wt  1.000):  0.0000  0.0000  0.0235  0.3544  0.6222
  DIIS coefficients:  0.0000  0.0000  0.0235  0.3544  0.6222
 SCF Error: norm([F,P])=      0.338887889123, max([F,P])=      0.111433458042
 orbitals (Q,E):
 ---------------
 A :40...50          ( 2.00    -0.2695)  ( 2.00    -0.2679)  ( 2.00    -0.2670)  ( 2.00    -0.2629)
                     ( 2.00    -0.2624)  ( 2.00    -0.2604)  ( 2.00    -0.2592)  ( 2.00    -0.2094)
                     ( 2.00    -0.1855)  ( 2.00    -0.1748)  ( 0.00    -0.1178)

 CYCLE    7
  SDIIS (wt  0.467): -0.0112 -0.0085  0.0737  0.2622  0.4567  0.2270
 A-DIIS (wt  0.533):  0.0000  0.0000  0.0000  0.1114  0.4414  0.4472
  DIIS coefficients: -0.0052 -0.0040  0.0344  0.1818  0.4486  0.3443
 SCF Error: norm([F,P])=      0.256462937411, max([F,P])=      0.053744516928
 orbitals (Q,E):
 ---------------
 A :40...50          ( 2.00    -0.2611)  ( 2.00    -0.2607)  ( 2.00    -0.2596)  ( 2.00    -0.2583)
                     ( 2.00    -0.2578)  ( 2.00    -0.2563)  ( 2.00    -0.2561)  ( 2.00    -0.2044)
                     ( 2.00    -0.1806)  ( 2.00    -0.1732)  ( 0.00    -0.1159)

 CYCLE    8
  SDIIS (wt  0.833): -0.0113 -0.0058  0.0184  0.1317  0.3342  0.2685  0.2644
 A-DIIS (wt  0.167):  0.0000  0.0000  0.0000  0.0000  0.0704  0.1759  0.7537
  DIIS coefficients: -0.0094 -0.0048  0.0153  0.1097  0.2901  0.2530  0.3463
 SCF Error: norm([F,P])=      0.091294911307, max([F,P])=      0.017570745058
 orbitals (Q,E):
 ---------------
 A :40...50          ( 2.00    -0.2654)  ( 2.00    -0.2631)  ( 2.00    -0.2625)  ( 2.00    -0.2610)
                     ( 2.00    -0.2602)  ( 2.00    -0.2595)  ( 2.00    -0.2587)  ( 2.00    -0.2062)
                     ( 2.00    -0.1827)  ( 2.00    -0.1740)  ( 0.00    -0.1162)

 CYCLE    9
  SDIIS (wt  0.942): -0.0059 -0.0009 -0.0126  0.0026  0.1144  0.1658  0.3723  0.3643
 A-DIIS (wt  0.058):  0.0000  0.0000  0.0000  0.0000  0.0000  0.0000  0.2378  0.7622
  DIIS coefficients: -0.0055 -0.0008 -0.0119  0.0024  0.1077  0.1562  0.3644  0.3875
 SCF Error: norm([F,P])=      0.037499088901, max([F,P])=      0.006778162304
 orbitals (Q,E):
 ---------------
 A :40...50          ( 2.00    -0.2640)  ( 2.00    -0.2636)  ( 2.00    -0.2624)  ( 2.00    -0.2611)
                     ( 2.00    -0.2606)  ( 2.00    -0.2598)  ( 2.00    -0.2588)  ( 2.00    -0.2063)
                     ( 2.00    -0.1826)  ( 2.00    -0.1742)  ( 0.00    -0.1164)

 CYCLE   10
  SDIIS (wt  0.998): -0.0022 -0.0006 -0.0070 -0.0054  0.0502  0.0855  0.2302  0.2892  0.3601
 A-DIIS (wt  0.002):  0.0000  0.0000  0.0000  0.0000  0.0000  0.0000  0.0000  0.0474  0.9526
  DIIS coefficients: -0.0022 -0.0006 -0.0070 -0.0053  0.0501  0.0853  0.2298  0.2887  0.3613
 SCF Error: norm([F,P])=      0.008168997365, max([F,P])=      0.001205108909
 orbitals (Q,E):
 ---------------
 A :40...50          ( 2.00    -0.2640)  ( 2.00    -0.2633)  ( 2.00    -0.2622)  ( 2.00    -0.2608)
                     ( 2.00    -0.2603)  ( 2.00    -0.2597)  ( 2.00    -0.2585)  ( 2.00    -0.2061)
                     ( 2.00    -0.1824)  ( 2.00    -0.1740)  ( 0.00    -0.1162)

 CYCLE   11
  SDIIS (wt  1.000):  0.0000 -0.0005 -0.0013 -0.0036  0.0153  0.0296  0.0956  0.1409  0.2541  0.4700
  DIIS coefficients:  0.0000 -0.0005 -0.0013 -0.0036  0.0153  0.0296  0.0956  0.1409  0.2541  0.4700
 SCF Error: norm([F,P])=      0.002158689140, max([F,P])=      0.000337949417
 orbitals (Q,E):
 ---------------
 A :40...50          ( 2.00    -0.2639)  ( 2.00    -0.2633)  ( 2.00    -0.2622)  ( 2.00    -0.2608)
                     ( 2.00    -0.2603)  ( 2.00    -0.2597)  ( 2.00    -0.2586)  ( 2.00    -0.2061)
                     ( 2.00    -0.1824)  ( 2.00    -0.1740)  ( 0.00    -0.1162)

 CYCLE   12
  SDIIS (wt  1.000): -0.0001 -0.0004 -0.0012  0.0027  0.0042  0.0188  0.0385  0.0987  0.2694  0.5694
  DIIS coefficients: -0.0001 -0.0004 -0.0012  0.0027  0.0042  0.0188  0.0385  0.0987  0.2694  0.5694
 SCF Error: norm([F,P])=      0.000751502423, max([F,P])=      0.000174416797
 orbitals (Q,E):
 ---------------
 A :40...50          ( 2.00    -0.2639)  ( 2.00    -0.2633)  ( 2.00    -0.2622)  ( 2.00    -0.2608)
                     ( 2.00    -0.2603)  ( 2.00    -0.2597)  ( 2.00    -0.2586)  ( 2.00    -0.2061)
                     ( 2.00    -0.1824)  ( 2.00    -0.1740)  ( 0.00    -0.1162)

 CYCLE   13
  SDIIS (wt  1.000): -0.0002 -0.0007  0.0006  0.0005  0.0066  0.0192  0.0593  0.1718  0.4417  0.3012
  DIIS coefficients: -0.0002 -0.0007  0.0006  0.0005  0.0066  0.0192  0.0593  0.1718  0.4417  0.3012
 SCF Error: norm([F,P])=      0.000386101239, max([F,P])=      0.000058276122
 orbitals (Q,E):
 ---------------
 A :40...50          ( 2.00    -0.2639)  ( 2.00    -0.2633)  ( 2.00    -0.2622)  ( 2.00    -0.2608)
                     ( 2.00    -0.2603)  ( 2.00    -0.2597)  ( 2.00    -0.2586)  ( 2.00    -0.2061)
                     ( 2.00    -0.1824)  ( 2.00    -0.1740)  ( 0.00    -0.1162)

 CYCLE   14
  SDIIS (wt  1.000): -0.0002  0.0003 -0.0000  0.0025  0.0086  0.0290  0.0790  0.2153  0.1964  0.4693
  DIIS coefficients: -0.0002  0.0003 -0.0000  0.0025  0.0086  0.0290  0.0790  0.2153  0.1964  0.4693
 SCF Error: norm([F,P])=      0.000087710798, max([F,P])=      0.000013713489
 orbitals (Q,E):
 ---------------
 A :40...50          ( 2.00    -0.2639)  ( 2.00    -0.2634)  ( 2.00    -0.2622)  ( 2.00    -0.2608)
                     ( 2.00    -0.2603)  ( 2.00    -0.2597)  ( 2.00    -0.2586)  ( 2.00    -0.2061)
                     ( 2.00    -0.1824)  ( 2.00    -0.1740)  ( 0.00    -0.1162)

 CYCLE   15
  SDIIS (wt  1.000):  0.0002  0.0001  0.0006  0.0022  0.0093  0.0238  0.0763  0.0869  0.3416  0.4589
  DIIS coefficients:  0.0002  0.0001  0.0006  0.0022  0.0093  0.0238  0.0763  0.0869  0.3416  0.4589
 SCF Error: norm([F,P])=      0.000049564292, max([F,P])=      0.000005939201
 orbitals (Q,E):
 ---------------
 A :40...50          ( 2.00    -0.2639)  ( 2.00    -0.2633)  ( 2.00    -0.2622)  ( 2.00    -0.2608)
                     ( 2.00    -0.2603)  ( 2.00    -0.2597)  ( 2.00    -0.2586)  ( 2.00    -0.2061)
                     ( 2.00    -0.1824)  ( 2.00    -0.1740)  ( 0.00    -0.1162)

 CYCLE   16
  SDIIS (wt  1.000): -0.0000 -0.0001  0.0004  0.0027  0.0065  0.0227  0.0264  0.1401  0.2482  0.5531
  DIIS coefficients: -0.0000 -0.0001  0.0004  0.0027  0.0065  0.0227  0.0264  0.1401  0.2482  0.5531
 SCF Error: norm([F,P])=      0.000012393694, max([F,P])=      0.000001514182
 orbitals (Q,E):
 ---------------
 A :40...50          ( 2.00    -0.2639)  ( 2.00    -0.2634)  ( 2.00    -0.2622)  ( 2.00    -0.2608)
                     ( 2.00    -0.2603)  ( 2.00    -0.2597)  ( 2.00    -0.2586)  ( 2.00    -0.2061)
                     ( 2.00    -0.1824)  ( 2.00    -0.1740)  ( 0.00    -0.1162)

 CYCLE   17
  SDIIS (wt  1.000): -0.0000  0.0001  0.0008  0.0017  0.0062  0.0091  0.0650  0.1185  0.3111  0.4875
  DIIS coefficients: -0.0000  0.0001  0.0008  0.0017  0.0062  0.0091  0.0650  0.1185  0.3111  0.4875
 SCF Error: norm([F,P])=      0.000002842182, max([F,P])=      0.000000496938
 orbitals (Q,E):
 ---------------
 A :40...50          ( 2.00    -0.2639)  ( 2.00    -0.2634)  ( 2.00    -0.2622)  ( 2.00    -0.2608)
                     ( 2.00    -0.2603)  ( 2.00    -0.2597)  ( 2.00    -0.2586)  ( 2.00    -0.2061)
                     ( 2.00    -0.1824)  ( 2.00    -0.1740)  ( 0.00    -0.1162)

 SCF CONVERGED

 CYCLE   18
1
 ***************************************************************************************************



                                                *******************
                                                *  R E S U L T S  *
                                                *******************
  
 *** Using FIT density in Focky
  SDIIS (wt  1.000):  0.0000  0.0002  0.0004  0.0010  0.0017  0.0159  0.0256  0.0929  0.2984  0.5639
  DIIS coefficients:  0.0000  0.0002  0.0004  0.0010  0.0017  0.0159  0.0256  0.0929  0.2984  0.5639
 SCF Error: norm([F,P])=      0.000001384687, max([F,P])=      0.000000245826

 Scaled ZORA Orbital Energies, per Irrep and Spin:
 =================================================
                        Occup              E (au)              E (eV)       Diff (eV) with prev. cycle
                        -----      --------------------        ------       --------------------------
 A
              40        2.000     -0.26394496735270E+00        -7.182               8.93E-08
              41        2.000     -0.26335053318630E+00        -7.166               3.94E-07
              42        2.000     -0.26219152699343E+00        -7.135              -1.56E-07
              43        2.000     -0.26079943693697E+00        -7.097               2.86E-07
              44        2.000     -0.26027654357878E+00        -7.082               1.83E-07
              45        2.000     -0.25968943563262E+00        -7.067               8.33E-08
              46        2.000     -0.25856890259630E+00        -7.036               1.53E-07
              47        2.000     -0.20607876740381E+00        -5.608               3.87E-07
              48        2.000     -0.18237614702148E+00        -4.963               6.11E-07
              49        2.000     -0.17401287702584E+00        -4.735               1.03E-06
              50        0.000     -0.11624752706340E+00        -3.163
              51        0.000     -0.10921718742118E+00        -2.972
              52        0.000     -0.10802756911102E+00        -2.940
              53        0.000     -0.10237430377297E+00        -2.786
              54        0.000     -0.90184627815976E-01        -2.454
              55        0.000     -0.75210001815734E-01        -2.047
              56        0.000     -0.48079889670064E-01        -1.308
              57        0.000     -0.39078285545181E-01        -1.063
              58        0.000     -0.17652582263657E-01        -0.480
              59        0.000     -0.84907860314197E-02        -0.231
  
 HOMO :       49 A                -0.17401287702584E+00
 LUMO :       50 A                -0.11624752706340E+00
  


 Scaled ZORA Orbital Energies of the Core Orbitals:
 ==================================================

 (Note that the atoms are grouped by atomtype, see the labels, and may hence NOT be in input order)

 AtomType  Orbital  Atom                   E (au)                        E (eV)
 --------  -------  ----           --------------------        ----------------
 C           1S        1          -0.10045074786233E+02                -273.340
 O           1S        2          -0.18900217344919E+02                -514.301
 Ag          1S        3          -0.93043324874369E+03              -25318.377
                       4          -0.93040923583323E+03              -25317.723
                       5          -0.93041203794387E+03              -25317.800
                       6          -0.93040975261670E+03              -25317.738
                       7          -0.93040886189246E+03              -25317.713
                       8          -0.93041306948486E+03              -25317.828
                       9          -0.93040829134542E+03              -25317.698
                      10          -0.93041325840959E+03              -25317.833
             2S        3          -0.13699212716895E+03               -3727.745
                       4          -0.13696785728555E+03               -3727.085
                       5          -0.13697069678917E+03               -3727.162
                       6          -0.13696839154194E+03               -3727.100
                       7          -0.13696757784295E+03               -3727.077
                       8          -0.13697173666068E+03               -3727.191
                       9          -0.13696691255191E+03               -3727.059
                      10          -0.13697192294393E+03               -3727.196
             3S        3          -0.25132304836043E+02                -683.885
                       4          -0.25108794187686E+02                -683.245
                       5          -0.25111719106719E+02                -683.325
                       6          -0.25109294969968E+02                -683.259
                       7          -0.25108568489662E+02                -683.239
                       8          -0.25112756264711E+02                -683.353
                       9          -0.25107852742619E+02                -683.219
                      10          -0.25112957266120E+02                -683.358
             4S        3          -0.35369669529390E+01                 -96.246
                       4          -0.35153408901218E+01                 -95.657
                       5          -0.35185091081743E+01                 -95.744
                       6          -0.35157705245700E+01                 -95.669
                       7          -0.35152630125412E+01                 -95.655
                       8          -0.35195349814680E+01                 -95.771
                       9          -0.35144148733260E+01                 -95.632
                      10          -0.35197716800407E+01                 -95.778
             2P        3          -0.12284441299882E+03               -3342.767
                       4          -0.12282014388049E+03               -3342.106
                       5          -0.12282298176624E+03               -3342.183
                       6          -0.12282067793147E+03               -3342.121
                       7          -0.12281985952383E+03               -3342.098
                       8          -0.12282402130017E+03               -3342.212
                       9          -0.12281919916755E+03               -3342.080
                      10          -0.12282420707303E+03               -3342.217
             3P        3          -0.20516532769124E+02                -558.283
                       4          -0.20493018853664E+02                -557.643
                       5          -0.20495944241606E+02                -557.723
                       6          -0.20493519945437E+02                -557.657
                       7          -0.20492794003524E+02                -557.637
                       8          -0.20496981483331E+02                -557.751
                       9          -0.20492077439894E+02                -557.618
                      10          -0.20497182363350E+02                -557.757
             4P        3          -0.22008046605483E+01                 -59.887
                       4          -0.21797044279900E+01                 -59.313
                       5          -0.21829609761217E+01                 -59.401
                       6          -0.21801153577707E+01                 -59.324
                       7          -0.21796783666535E+01                 -59.312
                       8          -0.21839830436269E+01                 -59.429
                       9          -0.21787790255925E+01                 -59.288
                      10          -0.21842267764527E+01                 -59.436
             3D        3          -0.13216158521970E+02                -359.630
                       4          -0.13192540739061E+02                -358.987
                       5          -0.13195457038012E+02                -359.067
                       6          -0.13193046686633E+02                -359.001
                       7          -0.13192313532464E+02                -358.981
                       8          -0.13196495002653E+02                -359.095
                       9          -0.13191598857375E+02                -358.962
                      10          -0.13196694126075E+02                -359.100


 Fit test: (difference of exact and fit density, squared integrated, result summed over spins)
         Sum-of-Fragments:                             0.00000000005603
         Orthogonalized Fragments:                     0.00008156096576
         SCF:                                          0.00027936896962



 ==========================
 Electron Density at Nuclei
 ==========================
  
 The electron density is calculated at points on a small sphere around the center of a nucleus.
 The printed electron density is the average electron density on these points.
 The radius of the sphere is the printed approximate finite nuclear radius.
 Note: ZORA-4 density is used, which includes small component density

         Atom        Nuclear Radius (Angstrom)             Electron Density (a.u.)
         ----        -------------------------             -----------------------
     1)   C                 0.0000320678                              127.51465
     2)   O                 0.0000345546                              316.13784
     3)   Ag                0.0000585966                           141430.04763
     4)   Ag                0.0000585966                           141430.02489
     5)   Ag                0.0000585966                           141430.48262
     6)   Ag                0.0000585966                           141430.06235
     7)   Ag                0.0000585966                           141430.60818
     8)   Ag                0.0000585966                           141430.51878
     9)   Ag                0.0000585966                           141430.02352
    10)   Ag                0.0000585966                           141430.49174



 =======================================
 M U L L I K E N   P O P U L A T I O N S
 =======================================
  
 The survey below gives for each atom:
 a) the total charge (Z minus electrons)
 b) the net spin polarization (nr of electrons spin-A minus spin-B)
 c) for each spin the atomic electron valence density (integrated) per L-value.

 Atom              Charge    Spin density          S         P         D         F
 ----              ------    ------------       ------    ------    ------    ------
 1 C               0.2730                       1.6141    2.0303    0.0826    0.0000
 2 O              -0.2913                       1.8719    4.3618    0.0575    0.0000
 3 Ag              0.1205                       0.7022    0.4132    9.7641    0.0000
 4 Ag              0.0631                       0.8356    0.2634    9.8379    0.0000
 5 Ag             -0.0719                       0.9803    0.2157    9.8758    0.0000
 6 Ag              0.0605                       0.8401    0.2638    9.8357    0.0000
 7 Ag             -0.0841                       0.9900    0.2199    9.8742    0.0000
 8 Ag             -0.0685                       0.9823    0.2108    9.8755    0.0000
 9 Ag              0.0663                       0.8292    0.2652    9.8394    0.0000
 10 Ag            -0.0676                       0.9772    0.2147    9.8757    0.0000

 Populations of individual BAS functions
 ----------------------------------------
 1 C            0.0007  0.7661  0.8806 -0.0333 -0.0101 -0.0010 -0.0205  0.5111  0.4980  0.5799
                0.1539  0.1274  0.1916  0.0083  0.0104  0.0179  0.0015  0.0182  0.0263
 2 O            0.0005  0.8951  0.9935 -0.0171  0.2920  0.3214  0.2498  0.8904  0.8789  0.9196
                0.2671  0.2625  0.2801  0.0084  0.0074  0.0124 -0.0018  0.0122  0.0190
 3 Ag          -0.0003  0.0002 -0.0023  0.0287  0.0000  0.0000  0.0000  0.0001  0.0001  0.0001
                0.0011  0.0014  0.0021  0.0384  0.0575  0.0569  0.0380  0.0578  0.0380  0.2633
                0.4539 -0.0413  0.5511  0.8195  0.8106  0.5412  0.8230  0.5383  0.6503  0.9540
                0.9480  0.6294  0.9536  0.6183  0.0952  0.1326  0.1270  0.0907  0.1252  0.0694
                0.1366  0.1225  0.1492
 4 Ag          -0.0003  0.0002 -0.0023  0.0284  0.0000  0.0000  0.0000  0.0000  0.0001  0.0001
                0.0007  0.0011  0.0010  0.0384  0.0575  0.0578  0.0383  0.0570  0.0384  0.2819
                0.5027  0.0249  0.5505  0.8197  0.8237  0.5422  0.8124  0.5478  0.6473  0.9566
                0.9615  0.6233  0.9538  0.6412  0.0927  0.1317  0.1240  0.0927  0.1368  0.0927
                0.0496  0.0900  0.1209
 5 Ag          -0.0003  0.0002 -0.0024  0.0296  0.0000  0.0000  0.0000  0.0000  0.0000  0.0000
                0.0006  0.0007  0.0007  0.0382  0.0576  0.0574  0.0383  0.0575  0.0383  0.3199
                0.6069  0.0265  0.5462  0.8216  0.8190  0.5439  0.8200  0.5469  0.6440  0.9588
                0.9551  0.6269  0.9573  0.6431  0.0890  0.1415  0.1429  0.1013  0.1447  0.0863
                0.0697  0.0594  0.0844
 6 Ag          -0.0003  0.0002 -0.0023  0.0285  0.0000  0.0000  0.0000  0.0000  0.0001  0.0001
                0.0007  0.0011  0.0010  0.0384  0.0575  0.0578  0.0383  0.0570  0.0384  0.2827
                0.5048  0.0265  0.5505  0.8196  0.8232  0.5423  0.8123  0.5478  0.6475  0.9565
                0.9606  0.6231  0.9537  0.6410  0.0923  0.1317  0.1237  0.0927  0.1368  0.0931
                0.0503  0.0904  0.1200
 7 Ag          -0.0003  0.0002 -0.0025  0.0300  0.0000  0.0000  0.0000  0.0000  0.0000  0.0000
                0.0006  0.0007  0.0008  0.0382  0.0576  0.0574  0.0383  0.0574  0.0383  0.3224
                0.6095  0.0308  0.5461  0.8213  0.8187  0.5445  0.8193  0.5467  0.6443  0.9584
                0.9542  0.6266  0.9560  0.6418  0.0886  0.1419  0.1430  0.1029  0.1464  0.0861
                0.0681  0.0566  0.0931
 8 Ag          -0.0003  0.0002 -0.0024  0.0297  0.0000  0.0000  0.0000  0.0000  0.0000  0.0000
                0.0008  0.0007  0.0005  0.0383  0.0574  0.0574  0.0383  0.0576  0.0383  0.3194
                0.6066  0.0292  0.5465  0.8192  0.8187  0.5450  0.8211  0.5470  0.6394  0.9562
                0.9553  0.6281  0.9587  0.6478  0.0861  0.1464  0.1426  0.1016  0.1412  0.0871
                0.0850  0.0593  0.0644
 9 Ag          -0.0003  0.0002 -0.0023  0.0284  0.0000  0.0000  0.0000  0.0000  0.0001  0.0000
                0.0009  0.0012  0.0008  0.0383  0.0570  0.0578  0.0383  0.0576  0.0384  0.2816
                0.4970  0.0246  0.5475  0.8124  0.8233  0.5422  0.8204  0.5504  0.6414  0.9541
                0.9612  0.6221  0.9571  0.6477  0.0940  0.1366  0.1248  0.0934  0.1310  0.0925
                0.1114  0.0923  0.0585
 10 Ag         -0.0003  0.0002 -0.0024  0.0296  0.0000  0.0000  0.0000  0.0000  0.0000  0.0000
                0.0008  0.0007  0.0005  0.0383  0.0574  0.0574  0.0383  0.0576  0.0383  0.3182
                0.6041  0.0279  0.5466  0.8190  0.8186  0.5450  0.8213  0.5469  0.6394  0.9562
                0.9553  0.6286  0.9590  0.6473  0.0864  0.1461  0.1427  0.1024  0.1412  0.0864
                0.0860  0.0606  0.0660

 Gross Charges per Atom (Z minus electrons)
 ==========================================
             0.2730   -0.2913    0.1205    0.0631   -0.0719    0.0605   -0.0841   -0.0685    0.0663   -0.0676
 Net Total: -0.00000000


 Atom-Atom Population Matrix (off-diagonal elements not doubled)
 ===============================================================

     1 :     3.1065
     2 :     0.4781    5.8286
     3 :     0.1449   -0.0116   10.2679
     4 :     0.0024   -0.0011    0.0766   10.4551
     5 :     0.0022   -0.0026    0.1711    0.1221   10.6244
     6 :    -0.0015    0.0001    0.0823   -0.0538    0.1235   10.4558
     7 :    -0.0004    0.0001   -0.0293    0.1133    0.0948    0.1095   10.6323
     8 :    -0.0042    0.0001    0.1132   -0.0331   -0.0121    0.1873   -0.0190   10.6126
     9 :     0.0000    0.0001   -0.0435    0.0694   -0.0389    0.0702    0.2012    0.1038   10.4624
    10 :    -0.0010   -0.0004    0.1081    0.1860   -0.0126   -0.0339   -0.0182    0.1199    0.1090   10.6108



 =================================================
 H I R S H F E L D   C H A R G E   A N A L Y S I S
 =================================================
  
 For each fragment: the (numerical) integral of rho(scf) * rho(fragment)/rho(sum-of-fragments)
 (nuclear charges are included, electrons are counted negative)

 The fragments and their ordering are defined in the early G E O M E T R Y output section.
 If you use single-atom fragments, this usually implies that all atoms of the same
[...]
                                   -2.94%     1 S              -4.550  1.00     9 Ag
                                   -2.64%     2 S               1.356  0.00     4 Ag
                                    2.54%     1 P:x             0.354  0.00     4 Ag
                                   -2.06%     2 S               1.356  0.00     9 Ag
       2.021  0.00    68 A         39.26%     2 S               1.356  0.00     8 Ag
                                   35.41%     2 S               1.356  0.00    10 Ag
                                   30.90%     2 S               1.356  0.00     4 Ag
                                   10.05%     2 S               1.356  0.00     6 Ag
                                   -7.34%     1 S              -4.550  1.00     4 Ag
                                   -6.56%     1 S              -4.550  1.00     8 Ag
                                   -5.65%     1 S              -4.550  1.00    10 Ag
                                    1.87%     2 S               1.356  0.00     7 Ag
                                   -1.68%     1 S              -4.550  1.00     6 Ag
       2.059  0.00    69 A         43.19%     2 S               1.356  0.00     7 Ag
                                   39.62%     2 S               1.356  0.00     9 Ag
                                   28.82%     2 S               1.356  0.00     5 Ag
                                   -7.58%     1 S              -4.550  1.00     9 Ag
                                   -7.31%     1 S              -4.550  1.00     7 Ag
                                    4.64%     2 S               1.356  0.00     3 Ag
                                   -4.42%     1 S              -4.550  1.00     5 Ag
                                   -1.58%     1 S              -4.550  1.00     3 Ag
                                    1.37%     2 S               1.356  0.00     6 Ag
                                    1.02%     2 P:y             4.695  0.00     1 C
       2.208  0.00    70 A         22.72%     2 S               1.356  0.00     3 Ag
                                   22.35%     2 S               1.356  0.00     4 Ag
                                   19.33%     2 S               1.356  0.00     9 Ag
                                   18.92%     2 S               1.356  0.00     6 Ag
                                   12.82%     2 S               1.356  0.00    10 Ag
                                   10.05%     2 S               1.356  0.00     7 Ag
                                   -6.57%     1 S              -4.550  1.00     6 Ag
                                    4.65%     2 P:z             4.695  0.00     1 C
                                   -4.50%     1 S              -4.550  1.00     3 Ag
                                   -4.23%     1 S              -4.550  1.00     4 Ag
                                   -2.24%     1 S              -4.550  1.00    10 Ag
                                   -1.74%     1 S              -4.550  1.00     9 Ag
                                    1.21%     1 P:x            -5.426  0.67     1 C



 ==================
 AOResponse routine  ***  Version 09/07 (scalar- or non-relativistic)  ***
 ==================
  
 *** number of frequencies =           1
 *** frequency #           1 =  0.000000000000000E+000  Hartree, 
  0.000000000000000E+000  eV
 
 No. of frequency:           1

    Dipmat_x            
    using first order VWN potential
 
    NOTE: We will NOT use the GGA kernel (input option ALDA was set)
 
 CRIT   1.00000000000000     
 iter.  1 V(1) measure  0.4440917627741E+04
 *** convergence criterion : .4440918E-02
 CRIT   227.033904149619     
 iter.  2 V(1) measure  0.4027499682223E+04
        2        delta  0.4134179455182E+03
 CRIT   96.8284386583233     
 iter.  3 V(1) measure  0.4017041916407E+04
        3        delta  0.1045776581616E+02
 CRIT   28.4064660302681     
 iter.  4 V(1) measure  0.4011715928610E+04
        4        delta  0.5325987796760E+01
 CRIT   13.8305625324141     
 iter.  5 V(1) measure  0.4006888892506E+04
        5        delta  0.4827036103696E+01
 CRIT   2.69125708144197     
 iter.  6 V(1) measure  0.4006048009763E+04
        6        delta  0.8408827436870E+00
 CRIT   2.10674278705210     
 iter.  7 V(1) measure  0.4005712085905E+04
        7        delta  0.3359238576736E+00
 CRIT  0.935363304779091     
 iter.  8 V(1) measure  0.4005811858948E+04
        8        delta  0.9977304272570E-01
 CRIT  0.226848689268519     
 iter.  9 V(1) measure  0.4005855411966E+04
        9        delta  0.4355301837631E-01
 CRIT  0.139640954655699     
 iter. 10 V(1) measure  0.4005892808850E+04
       10        delta  0.3739688390942E-01
 CRIT  3.052571122180051E-002
 iter. 11 V(1) measure  0.4005904641703E+04
       11        delta  0.1183285297975E-01
 CRIT  1.124278886911244E-002
 iter. 12 V(1) measure  0.4005908083888E+04
       12        delta  0.3442184794494E-02
 *** convergence reached
 ----------------------------------------------
Hirshfeld fragment: 1 C
pol_frag_loc x              4.09392
pol_frag_loc y             -0.54965
pol_frag_loc z             -1.03355
charge_frag                -0.36394
pol_frag_non-loc x         -0.20688
pol_frag_non-loc y          0.68885
pol_frag_non-loc z         -2.16910
 ----------------------------------------------
Hirshfeld fragment: 1 O
pol_frag_loc x              2.66257
pol_frag_loc y              0.05678
pol_frag_loc z              0.37483
charge_frag                 2.02414
pol_frag_non-loc x          3.61413
pol_frag_non-loc y         -2.33641
pol_frag_non-loc z         15.41720
 ----------------------------------------------
Hirshfeld fragment: 1 Ag
pol_frag_loc x              8.42249
pol_frag_loc y              0.25504
pol_frag_loc z             -0.90352
charge_frag                -0.46467
pol_frag_non-loc x          0.13236
pol_frag_non-loc y          0.34351
pol_frag_non-loc z         -0.88679
 ----------------------------------------------
Hirshfeld fragment: 2 Ag
pol_frag_loc x             25.87586
pol_frag_loc y              4.08780
pol_frag_loc z             -0.53772
charge_frag                11.57312
pol_frag_non-loc x         38.25923
pol_frag_non-loc y         17.20390
pol_frag_non-loc z        -19.46940
 ----------------------------------------------
Hirshfeld fragment: 3 Ag
pol_frag_loc x             14.95353
pol_frag_loc y             -0.17460
pol_frag_loc z             -0.53061
charge_frag                -0.29737
pol_frag_non-loc x          0.08470
pol_frag_non-loc y         -1.30969
pol_frag_non-loc z         -0.32642
 ----------------------------------------------
Hirshfeld fragment: 4 Ag
pol_frag_loc x             26.15440
pol_frag_loc y             -4.14890
pol_frag_loc z             -0.09483
charge_frag               -11.68106
pol_frag_non-loc x         45.27048
pol_frag_non-loc y        -17.36435
pol_frag_non-loc z         19.65099
 ----------------------------------------------
Hirshfeld fragment: 5 Ag
pol_frag_loc x             15.98011
pol_frag_loc y             -0.02775
pol_frag_loc z              0.28568
charge_frag                -0.12076
pol_frag_non-loc x          0.03440
pol_frag_non-loc y         -0.53184
pol_frag_non-loc z          0.53885
 ----------------------------------------------
Hirshfeld fragment: 6 Ag
pol_frag_loc x             21.26635
pol_frag_loc y              6.67327
pol_frag_loc z             -0.22614
charge_frag                -9.66953
pol_frag_non-loc x         29.63545
pol_frag_non-loc y         35.36097
pol_frag_non-loc z         16.26701
 ----------------------------------------------
Hirshfeld fragment: 7 Ag
pol_frag_loc x             10.92591
pol_frag_loc y             -0.05081
pol_frag_loc z              0.42595
charge_frag                -0.24747
pol_frag_non-loc x          0.07781
pol_frag_non-loc y          0.17136
pol_frag_non-loc z          1.31681
 ----------------------------------------------
Hirshfeld fragment: 8 Ag
pol_frag_loc x             20.69543
pol_frag_loc y             -6.32265
pol_frag_loc z             -0.44633
charge_frag                 9.24676
pol_frag_non-loc x         22.64992
pol_frag_non-loc y        -33.71267
pol_frag_non-loc z        -16.20735
 ----------------------------------------------
pol_total x        290.58196
pol_total y         -1.68754
pol_total z         11.44425

    Dipmat_y            
    using first order VWN potential
 
    NOTE: We will NOT use the GGA kernel (input option ALDA was set)
 
 CRIT   1.00000000000000     
 iter.  1 V(1) measure  0.1056389152233E+05
 *** convergence criterion : .1056389E-01
 CRIT   279.149230443869     
 iter.  2 V(1) measure  0.9666839631992E+04
        2        delta  0.8970518903361E+03
 CRIT   87.6070105400563     
 iter.  3 V(1) measure  0.9625711856370E+04
        3        delta  0.4112777562196E+02
 CRIT   41.8486242453554     
 iter.  4 V(1) measure  0.9620341089522E+04
        4        delta  0.5370766847773E+01
 CRIT   20.0561007750743     
 iter.  5 V(1) measure  0.9609274671128E+04
        5        delta  0.1106641839444E+02
 CRIT   4.07651388700801     
 iter.  6 V(1) measure  0.9608065217109E+04
        6        delta  0.1209454019390E+01
 CRIT   2.35304243738387     
 iter.  7 V(1) measure  0.9608674397075E+04
        7        delta  0.6091799662299E+00
 CRIT  0.811282373627873     
 iter.  8 V(1) measure  0.9608846783914E+04
        8        delta  0.1723868390563E+00
 CRIT  0.246116531517752     
 iter.  9 V(1) measure  0.9608840280551E+04
        9        delta  0.6503362859803E-02
 *** convergence reached
 ----------------------------------------------
Hirshfeld fragment: 1 C
pol_frag_loc x              0.86646
pol_frag_loc y              5.88481
pol_frag_loc z             -0.41642
charge_frag                -2.85529
pol_frag_non-loc x         -1.62306
pol_frag_non-loc y          5.40443
pol_frag_non-loc z        -17.01787
 ----------------------------------------------
Hirshfeld fragment: 1 O
pol_frag_loc x             -0.30025
pol_frag_loc y              2.18719
pol_frag_loc z             -0.52189
charge_frag                -0.71191
pol_frag_non-loc x         -1.27112
pol_frag_non-loc y          0.82174
pol_frag_non-loc z         -5.42237
 ----------------------------------------------
Hirshfeld fragment: 1 Ag
pol_frag_loc x              0.26290
pol_frag_loc y              5.93449
pol_frag_loc z             -0.61210
charge_frag                -1.75277
pol_frag_non-loc x          0.49926
pol_frag_non-loc y          1.29573
pol_frag_non-loc z         -3.34500
 ----------------------------------------------
Hirshfeld fragment: 2 Ag
pol_frag_loc x              6.07732
pol_frag_loc y             10.03249
pol_frag_loc z              0.16764
charge_frag                 4.09570
pol_frag_non-loc x         13.53984
pol_frag_non-loc y          6.08841
pol_frag_non-loc z         -6.89017
 ----------------------------------------------
Hirshfeld fragment: 3 Ag
pol_frag_loc x             -0.10321
pol_frag_loc y             22.89271
pol_frag_loc z              9.92135
charge_frag                13.24630
pol_frag_non-loc x         -3.77306
pol_frag_non-loc y         58.33986
pol_frag_non-loc z         14.54041
 ----------------------------------------------
Hirshfeld fragment: 4 Ag
pol_frag_loc x             -6.02099
pol_frag_loc y              9.99880
pol_frag_loc z              0.11585
charge_frag                 4.07449
pol_frag_non-loc x        -15.79090
pol_frag_non-loc y          6.05690
pol_frag_non-loc z         -6.85450
 ----------------------------------------------
Hirshfeld fragment: 5 Ag
pol_frag_loc x              0.01742
pol_frag_loc y             23.93196
pol_frag_loc z            -11.01991
charge_frag                13.58864
pol_frag_non-loc x         -3.87056
pol_frag_non-loc y         59.84760
pol_frag_non-loc z        -60.63638
 ----------------------------------------------
Hirshfeld fragment: 6 Ag
pol_frag_loc x              9.78967
pol_frag_loc y             22.55158
pol_frag_loc z             -0.06419
charge_frag               -12.86042
pol_frag_non-loc x         39.41499
pol_frag_non-loc y         47.02990
pol_frag_non-loc z         21.63503
 ----------------------------------------------
Hirshfeld fragment: 7 Ag
pol_frag_loc x             -0.10500
pol_frag_loc y              9.58151
pol_frag_loc z              6.20693
charge_frag                -4.16787
pol_frag_non-loc x          1.31050
pol_frag_non-loc y          2.88590
pol_frag_non-loc z         22.17715
 ----------------------------------------------
Hirshfeld fragment: 8 Ag
pol_frag_loc x             -9.59803
pol_frag_loc y             22.40668
pol_frag_loc z              0.65965
charge_frag               -12.65734
pol_frag_non-loc x        -31.00413
pol_frag_non-loc y         46.14727
pol_frag_non-loc z         22.18528
 ----------------------------------------------
pol_total x         -1.68206
pol_total y        369.32014
pol_total z        -15.19230

    Dipmat_z            
    using first order VWN potential
 
    NOTE: We will NOT use the GGA kernel (input option ALDA was set)
 
 CRIT   1.00000000000000     
 iter.  1 V(1) measure  0.6834512365377E+04
 *** convergence criterion : .6834512E-02
 CRIT   260.960211487457     
 iter.  2 V(1) measure  0.6266685419286E+04
        2        delta  0.5678269460912E+03
 CRIT   98.3052037489394     
 iter.  3 V(1) measure  0.6199822914862E+04
        3        delta  0.6686250442418E+02
 CRIT   38.8186697742693     
 iter.  4 V(1) measure  0.6195597516636E+04
        4        delta  0.4225398225211E+01
 CRIT   17.7283736120417     
 iter.  5 V(1) measure  0.6192598121981E+04
        5        delta  0.2999394655853E+01
 CRIT   7.04840407399545     
 iter.  6 V(1) measure  0.6191676811553E+04
        6        delta  0.9213104279697E+00
 CRIT   3.26947385227915     
 iter.  7 V(1) measure  0.6192864055904E+04
        7        delta  0.1187244351147E+01
 CRIT   1.44338395438168     
 iter.  8 V(1) measure  0.6193472379201E+04
        8        delta  0.6083232977171E+00
 CRIT  0.426602278449681     
 iter.  9 V(1) measure  0.6193617127211E+04
        9        delta  0.1447480097322E+00
 CRIT  0.174568658419652     
 iter. 10 V(1) measure  0.6193649577182E+04
       10        delta  0.3244997110960E-01
 CRIT  8.324297199646091E-002
 iter. 11 V(1) measure  0.6193668580239E+04
       11        delta  0.1900305636445E-01
 CRIT  2.103891205607319E-002
 iter. 12 V(1) measure  0.6193671606977E+04
       12        delta  0.3026738191693E-02
 *** convergence reached
 ----------------------------------------------
Hirshfeld fragment: 1 C
pol_frag_loc x             -4.13128
pol_frag_loc y             -4.12189
pol_frag_loc z              2.72547
charge_frag                 5.73376
pol_frag_non-loc x          3.25930
pol_frag_non-loc y        -10.85275
pol_frag_non-loc z         34.17395
 ----------------------------------------------
Hirshfeld fragment: 1 O
pol_frag_loc x              1.17713
pol_frag_loc y              0.44446
pol_frag_loc z              4.61341
charge_frag                 6.95475
pol_frag_non-loc x         12.41780
pol_frag_non-loc y         -8.02767
pol_frag_non-loc z         52.97205
 ----------------------------------------------
Hirshfeld fragment: 1 Ag
pol_frag_loc x             -1.34701
pol_frag_loc y              1.07585
pol_frag_loc z              8.46388
charge_frag                 4.89746
pol_frag_non-loc x         -1.39499
pol_frag_non-loc y         -3.62044
pol_frag_non-loc z          9.34637
 ----------------------------------------------
Hirshfeld fragment: 2 Ag
pol_frag_loc x             -1.49152
pol_frag_loc y             -0.06135
pol_frag_loc z              9.32608
charge_frag                -0.78954
pol_frag_non-loc x         -2.61010
pol_frag_non-loc y         -1.17368
pol_frag_non-loc z          1.32823
 ----------------------------------------------
Hirshfeld fragment: 3 Ag
pol_frag_loc x             -0.67617
pol_frag_loc y              5.67857
pol_frag_loc z             18.26844
charge_frag                 8.12146
pol_frag_non-loc x         -2.31331
pol_frag_non-loc y         35.76885
pol_frag_non-loc z          8.91489
 ----------------------------------------------
Hirshfeld fragment: 4 Ag
pol_frag_loc x              1.04590
pol_frag_loc y             -0.29948
pol_frag_loc z             10.44582
charge_frag                -0.54925
pol_frag_non-loc x          2.12863
pol_frag_non-loc y         -0.81648
pol_frag_non-loc z          0.92400
 ----------------------------------------------
Hirshfeld fragment: 5 Ag
pol_frag_loc x              0.34872
pol_frag_loc y             -7.29064
pol_frag_loc z             22.95487
charge_frag                -9.93856
pol_frag_non-loc x          2.83088
pol_frag_non-loc y        -43.77178
pol_frag_non-loc z         44.34868
 ----------------------------------------------
Hirshfeld fragment: 6 Ag
pol_frag_loc x              0.75494
pol_frag_loc y              0.90589
pol_frag_loc z             14.53612
charge_frag                -0.61047
pol_frag_non-loc x          1.87099
pol_frag_non-loc y          2.23246
pol_frag_non-loc z          1.02699
 ----------------------------------------------
Hirshfeld fragment: 7 Ag
pol_frag_loc x              0.33557
pol_frag_loc y              4.10309
pol_frag_loc z             28.30279
charge_frag               -12.53401
pol_frag_non-loc x          3.94107
pol_frag_non-loc y          8.67876
pol_frag_non-loc z         66.69325
 ----------------------------------------------
Hirshfeld fragment: 8 Ag
pol_frag_loc x             -1.55758
pol_frag_loc y              1.26882
pol_frag_loc z             14.19488
charge_frag                -1.28689
pol_frag_non-loc x         -3.15223
pol_frag_non-loc y          4.69185
pol_frag_non-loc z          2.25561
 ----------------------------------------------
pol_total x         11.43638
pol_total y        -15.18706
pol_total z        355.81363
 ------------------------------------------
 Convergence acceleration: T
 POLARIZABILITY                           
 Frequency  =   0.000000000     Hartrees
 Wavelength = infinite nm
 Wavenumber =   0.000000000     cm^{-1}
 Energy     =   0.000000000     eV
 ------------------------------------------
 Polarizability tensor:
                X                   Y                   Z
            290.58747            -1.68351            11.45094
             -1.67558           369.32263           -15.18860
             11.44430           -15.18396           355.82043

 Isotropic        POLARIZABILITY   =      338.58     atomic units



 =======================================================================
 Electrostatic potential at the Nuclei due to electrons and other nuclei
 =======================================================================
  
         Atom                  Potential
         ----                  ---------
     1)   C                  14.63751487
     2)   O                  22.24137120
     3)   Ag                274.23986657
     4)   Ag                274.26379482
     5)   Ag                274.26116560
     6)   Ag                274.26329646
     7)   Ag                274.26440011
     8)   Ag                274.26014908
     9)   Ag                274.26473884
    10)   Ag                274.25994916
 Mulliken charges used for AMS results%charges...


    =====================
     CALCULATION RESULTS
    =====================

Energy (hartree)            -1.07557330


--------------
Atomic charges
--------------
  Index   Atom    Charge
      1      C    0.2730
      2      O   -0.2913
      3     Ag    0.1205
      4     Ag    0.0631
      5     Ag   -0.0719
      6     Ag    0.0605
      7     Ag   -0.0841
      8     Ag   -0.0685
      9     Ag    0.0663
     10     Ag   -0.0676


Dipole moment vector    (Debye):    -0.09978344   -0.29876444    0.18275544
              magnitude (Debye):     0.36416545


AMS application finished. Exiting.
NORMAL TERMINATION
     Total cpu time:      11.24
  Total system time:       1.36
 Total elapsed time:      16.08
