

 Parallel Execution: Process Information
 ==============================================================================
 Rank   Node Name                              NodeID   MyNodeRank  NodeMaster
    0   p-sc-2175                                 0          0          0
    1   p-sc-2175                                 0          1         -1
    2   p-sc-2175                                 0          2         -1
    3   p-sc-2175                                 0          3         -1
    4   p-sc-2175                                 1          0          1
    5   p-sc-2175                                 1          1         -1
    6   p-sc-2175                                 1          2         -1
    7   p-sc-2175                                 1          3         -1
    8   p-sc-2175                                 1          4         -1
    9   p-sc-2175                                 1          5         -1
   10   p-sc-2175                                 1          6         -1
   11   p-sc-2175                                 1          7         -1
   12   p-sc-2175                                 1          8         -1
   13   p-sc-2175                                 1          9         -1
   14   p-sc-2175                                 1         10         -1
   15   p-sc-2175                                 1         11         -1
   16   p-sc-2175                                 2          0          2
   17   p-sc-2175                                 2          1         -1
   18   p-sc-2175                                 2          2         -1
   19   p-sc-2175                                 2          3         -1
 ==============================================================================


May use up to 61522MB of RAM as shared memory on node 1
May use up to 61500MB of RAM as shared memory on node 2
May use up to 61522MB of RAM as shared memory on node 0

 *******************************************************************************
 *                                                                             *
 *  --------------------------------                                           *
 *   Amsterdam Modeling Suite (AMS)              2022.101                      *
 *  --------------------------------                                           *
 *                                               r102085 2022-02-25            *
 *                                                                             *
 *                                                                             *
 *                              =================                              *
 *                              |               |                              *
 *                              |     A M S     |                              *
 *                              |               |                              *
 *                              =================                              *
 *                                                                             *
 *                                                                             *
 *   Online information and documentation:  https://www.scm.com/support/       *
 *   E-mail:  support@scm.com   info@scm.com                                   *
 *                                                                             *
 *   Scientific publications using AMS results must be properly referenced     *
 *   See the User Manuals (or the web site) for recommended citations          *
 *   The terms and conditions of the End User License Agreement apply to       *
 *   the use of AMS, https://www.scm.com/license-terms/                        *
 *                                                                             *
 ***********************  x86_64_linux_intel / openmpi  ************************
 
 Licensed to: Dr. Adri van Duin / Site license Penn State / University Park / PA / USA 2022-08-02 11:39:07
 SCM User ID: u20919
  
 AMS 2022.101  RunTime: Apr23-2023 01:06:01  ShM Nodes: 3  Procs: 20

 AMS jobname: ams
 AMS jobid  : 1680240688

 Start   directory: /scratch/ijc5167/scratch_adf/mode145.64-pswpz/
 Results directory: /scratch/ijc5167/scratch_adf/mode145.64-pswpz/ams.results/
 Scratch directory: /scratch/ijc5167/scratch_adf/mode145.64-pswpz/amstmp_ams_kid0.1680240688/


 Communication costs MPI_COMM_WORLD:      3.682 usec per message,   0.0256 usec per 8-byte item
 Communication costs for intra-node:      1.438 usec per message,   0.0092 usec per 8-byte item

 RNG seed: 1183095471 895268082 967946785 2092632440 267390800 -1097662167 784700100 284343918



                     *************************************************************************
                     *  ADF 2022.101  RunTime: Apr23-2023 01:06:02  ShM Nodes: 3  Procs: 20  *
                     *************************************************************************
  
       ****************************
       * SINGLE POINT CALCULATION *
       ****************************
 
--------
Geometry
--------
Formula: CAg8O
Atoms
  Index Symbol   x (angstrom)   y (angstrom)   z (angstrom)
      1      C     0.45752361    -1.20054767     4.04637823
      2      O     1.09198725    -0.80815434     4.91953879
      3     Ag    -0.00005500    -0.58888901     1.90011974
      4     Ag     1.90010743     0.58891724     0.00002109
      5     Ag    -0.00003161     2.13292337     1.47107827
      6     Ag    -1.90013473     0.58893899    -0.00004812
      7     Ag     0.00002198     2.13289296    -1.47113723
      8     Ag    -1.47113698    -2.13288027    -0.00001218
      9     Ag    -0.01564479    -0.56414545    -1.92551132
     10     Ag     1.44691967    -2.12704463    -0.03724752
 
Total System Charge             0.00000
 
 
----------------
ADF Engine Input
----------------
 
 Relativity
 Level Scalar
 End
 AORESPONSE
 ALDA True
 HIRSHPOL True
 el_dipole_el_dipole
 end
 basis
 Type TZP
 core Large
 end
 symmetry nosym
 numericalquality Normal
 xc
 GGA Becke88 Perdew86
 DISPERSION Grimme3 BJDAMP
 end
 

 Title: *** (NO TITLE) ***

 *** adf ***



 ===========================
 A T T A C H E D   F I L E S
 ===========================
  



 ===============================
 M O D E L   P A R A M E T E R S
 ===============================
  
 DENSITY FUNCTIONAL POTENTIAL (scf)
    LDA:                               VWN                                      
    Gradient Corrections:              Becke88 Perdew86                        == Not Default ==

 SPIN  (restricted / unrestr.)
    Molecule:                          Restricted                               
    Fragments:                         Restricted                               

 OTHER ASPECTS
    Relativistic Corrections:          scalar (ZORA,MAPA)                       

    Nuclear Charge Density Model:      Point Charge Nuclei                      
    Core Treatment:                    Frozen Orbital(s)                        

    Hyperfine or Zeeman Interaction:   ---                                      

 Settings for Grimme D3 dispersion correction

      damping                        BJ
      s6                          1.000
      s8                          3.282
      a1                          0.395
      a2                          4.852

 Other (technical) parameters

      alpha                      14.000
      version                         4
 


 Fragment File(s)
 ----------------
 C:
         file : /scratch/ijc5167/scratch_adf/mode145.64-pswpz/ams.results/t21.12976890.C
         jobid: 0
         title: Carbon (TZP, 1s frozen)
 O:
         file : /scratch/ijc5167/scratch_adf/mode145.64-pswpz/ams.results/t21.5B67203B.O
         jobid: 0
         title: Oxygen (TZP, 1s frozen)
 Ag:
         file : /scratch/ijc5167/scratch_adf/mode145.64-pswpz/ams.results/t21.4039B022.Ag
         jobid: 0
         title: Silver (TZP, 4p frozen)



 ===============
 G E O M E T R Y  ***  3D  Molecule  ***
 ===============
  

 ATOMS
 =====                            X Y Z                    CHARGE
                                (Angstrom)             Nucl     +Core       At.Mass
                       --------------------------    ----------------       -------
    1  C               0.4575   -1.2005    4.0464      6.00      4.00       12.0000
    2  O               1.0920   -0.8082    4.9195      8.00      6.00       15.9949
    3  Ag             -0.0001   -0.5889    1.9001     47.00     11.00      106.9051
    4  Ag              1.9001    0.5889    0.0000     47.00     11.00      106.9051
    5  Ag             -0.0000    2.1329    1.4711     47.00     11.00      106.9051
    6  Ag             -1.9001    0.5889   -0.0000     47.00     11.00      106.9051
    7  Ag              0.0000    2.1329   -1.4711     47.00     11.00      106.9051
    8  Ag             -1.4711   -2.1329   -0.0000     47.00     11.00      106.9051
    9  Ag             -0.0156   -0.5641   -1.9255     47.00     11.00      106.9051
   10  Ag              1.4469   -2.1270   -0.0372     47.00     11.00      106.9051


 FRAGMENTS
 =========                                     Atoms in this Fragment     Cart. coord.s (Angstrom)
                                               -------------------------------------------------------
    1  C                                                 1  C            0.4575   -1.2005    4.0464
    2  O                                                 2  O            1.0920   -0.8082    4.9195
    3  Ag                                                3  Ag          -0.0001   -0.5889    1.9001
    4  Ag                                                4  Ag           1.9001    0.5889    0.0000
    5  Ag                                                5  Ag          -0.0000    2.1329    1.4711
    6  Ag                                                6  Ag          -1.9001    0.5889   -0.0000
    7  Ag                                                7  Ag           0.0000    2.1329   -1.4711
    8  Ag                                                8  Ag          -1.4711   -2.1329   -0.0000
    9  Ag                                                9  Ag          -0.0156   -0.5641   -1.9255
   10  Ag                                               10  Ag           1.4469   -2.1270   -0.0372


 Interatomic Distance Matrix (Angstrom)
 --------------------------------------

   1)     0.000
   2)     1.148   0.000
   3)     2.278   3.218   0.000
   4)     4.654   5.178   2.934   0.000
   5)     4.237   4.662   2.755   2.856   0.000
   6)     5.013   5.925   2.934   3.800   2.856   0.000
   7)     6.463   7.119   4.333   2.856   2.942   2.856   0.000
   8)     4.578   5.703   2.856   4.333   4.746   2.755   4.746   0.000
   9)     6.024   6.938   3.826   2.951   4.337   2.931   2.735   2.879   0.000
  10)     4.303   5.142   2.866   2.754   4.745   4.311   4.722   2.918   2.854   0.000

 Min. Distance =    1.1484
 Max. Distance =    7.1192



 =====================================
 S Y M M E T R Y ,   E L E C T R O N S
 =====================================
  
 Symmetry: NOSYM

 Irreducible Representations, including subspecies
 -------------------------------------------------
 A


 Configuration of Valence Electrons
 ==================================
 ( determined in the SCF procedure )

 Total:   98

 Net Charge: 0 (Nuclei minus Electrons)

 Aufbau principle for MO occupations will be applied through SCF cycle no.     150
 Thereafter, the program will assign electrons to MOs that are spatially
 similar to the occupied MOs in a "reference" cycle ("KeepOrbitals").
 The reference cycle is always the PREVIOUS cycle: it will evolve with
 the SCF procedure.
1
 ***************************************************************************************************



                                      ****************************************
                                      *  B U I L D : (Fragments, Functions)  *
                                      ****************************************
  



 =======
 S F O s  ***  (Symmetrized Fragment Orbitals)  ***
 =======
  
 SFOs are linear combinations of (valence) Fragment Orbitals (FOs), such that the SFOs transform as the
 irreducible representations of the (molecular) symmetry group. Each SFO is therefore characterized by
 an irrep of the molecule and by a few (or only one) generating FOs.
 The SFOs constitute a symmetry-adapted basis for the Fock matrix. The MO eigenvector coefficients in
 this basis provide a direct interpretation of the MOs in terms of Frontier Orbital Theory.

 The SFOs are combined with auxiliary Core Functions (CFs) to ensure orthogonalization on the (frozen)
 Core Orbitals (COs). The Core-orthogonalized SFOs (CSFOs) constitute the true Fock basis.

 The FOs, and hence also the (C)SFOs are combinations of the elementary basis functions (BAS). The basis
 functions that participate in the description of the SFOs depend on the irrep. The indices of the
 involved functions are printed below for each irrep.
 (The complete list of primitive basis functions is printed in another section)

 Total nr. of (C)SFOs (summation over all irreps) :   202

 NOTE: a (C)SFO that is defined as a combination of more than one FO is usually NOT normalized.



                                       === A ===
 Nr. of SFOs :  202
 Cartesian basis functions that participate in this irrep (total number =   382) :
      1    20    39    40    41    42    43    46    49    44
     47    50    45    48    51    52    53    54    55    56
     57    82    83    84    85    86    89    92    87    90
     93    88    91    94    95    96    97    98    99   100
    125   126   127   128   129   132   135   130   133   136
    131   134   137   138   139   140   141   142   143   168
    169   170   171   172   175   178   173   176   179   174
    177   180   181   182   183   184   185   186   211   212
    213   214   215   218   221   216   219   222   217   220
    223   224   225   226   227   228   229   254   255   256
    257   258   261   264   259   262   265   260   263   266
    267   268   269   270   271   272   297   298   299   300
    301   304   307   302   305   308   303   306   309   310
    311   312   313   314   315   340   341   342   343   344
    347   350   345   348   351   346   349   352   353   354
    355   356   357   358     2     3     4     5     8    11
      6     9    12     7    10    13    14    15    16    17
     18    19    21    22    23    24    27    30    25    28
     31    26    29    32    33    34    35    36    37    38
     58    59    60    79    80    81    61    67    73    62
     68    74    63    69    75    64    70    76    65    71
     77    66    72    78   101   102   103   122   123   124
    104   110   116   105   111   117   106   112   118   107
    113   119   108   114   120   109   115   121   144   145
    146   165   166   167   147   153   159   148   154   160
    149   155   161   150   156   162   151   157   163   152
    158   164   187   188   189   208   209   210   190   196
    202   191   197   203   192   198   204   193   199   205
    194   200   206   195   201   207   230   231   232   251
    252   253   233   239   245   234   240   246   235   241
    247   236   242   248   237   243   249   238   244   250
    273   274   275   294   295   296   276   282   288   277
    283   289   278   284   290   279   285   291   280   286
    292   281   287   293   316   317   318   337   338   339
    319   325   331   320   326   332   321   327   333   322
    328   334   323   329   335   324   330   336   359   360
    361   380   381   382   362   368   374   363   369   375
    364   370   376   365   371   377   366   372   378   367
    373   379

    SFO  (index         Fragment          Generating    Expansion in Fragment Orbitals
  indx  incl.CFs)   Occup   Orb.Energy   FragmentType  Coeff.   Orbital     on Fragment
 --------------------------------------------------------------------------------------
     1     155      2.000      -0.511 au  C             1.00      1 S               1
                        (     -13.915 eV)
     2     156       --         0.428 au  C             1.00      2 S               1
                        (      11.654 eV)
     3     157       --         9.927 au  C             1.00      3 S               1
                        (     270.139 eV)
     4     158      0.667      -0.199 au  C             1.00      1 P:x             1
                        (      -5.426 eV)
     5     159       --         0.173 au  C             1.00      2 P:x             1
                        (       4.695 eV)
     6     160       --         2.022 au  C             1.00      3 P:x             1
                        (      55.030 eV)
     7     161      0.667      -0.199 au  C             1.00      1 P:y             1
                        (      -5.426 eV)
     8     162       --         0.173 au  C             1.00      2 P:y             1
                        (       4.695 eV)
     9     163       --         2.022 au  C             1.00      3 P:y             1
                        (      55.030 eV)
    10     164      0.667      -0.199 au  C             1.00      1 P:z             1
                        (      -5.426 eV)
    11     165       --         0.173 au  C             1.00      2 P:z             1
                        (       4.695 eV)
    12     166       --         2.022 au  C             1.00      3 P:z             1
                        (      55.030 eV)
    13     167       --         1.231 au  C             1.00      1 D:z2            1
                        (      33.508 eV)
    14     168       --         1.231 au  C             1.00      1 D:x2-y2         1
                        (      33.508 eV)
    15     169       --         1.231 au  C             1.00      1 D:xy            1
                        (      33.508 eV)
    16     170       --         1.231 au  C             1.00      1 D:xz            1
                        (      33.508 eV)
    17     171       --         1.231 au  C             1.00      1 D:yz            1
                        (      33.508 eV)
    18     172      2.000      -0.887 au  O             1.00      1 S               2
                        (     -24.141 eV)
    19     173       --         0.898 au  O             1.00      2 S               2
                        (      24.443 eV)
    20     174       --        29.557 au  O             1.00      3 S               2
                        (     804.274 eV)
    21     175      1.333      -0.338 au  O             1.00      1 P:x             2
                        (      -9.204 eV)
    22     176       --         0.354 au  O             1.00      2 P:x             2
                        (       9.644 eV)
    23     177       --         3.829 au  O             1.00      3 P:x             2
                        (     104.202 eV)
    24     178      1.333      -0.338 au  O             1.00      1 P:y             2
                        (      -9.204 eV)
    25     179       --         0.354 au  O             1.00      2 P:y             2
                        (       9.644 eV)
    26     180       --         3.829 au  O             1.00      3 P:y             2
                        (     104.202 eV)
    27     181      1.333      -0.338 au  O             1.00      1 P:z             2
                        (      -9.204 eV)
    28     182       --         0.354 au  O             1.00      2 P:z             2
                        (       9.644 eV)
    29     183       --         3.829 au  O             1.00      3 P:z             2
                        (     104.202 eV)
    30     184       --         1.061 au  O             1.00      1 D:z2            2
                        (      28.861 eV)
    31     185       --         1.061 au  O             1.00      1 D:x2-y2         2
                        (      28.861 eV)
    32     186       --         1.061 au  O             1.00      1 D:xy            2
                        (      28.861 eV)
    33     187       --         1.061 au  O             1.00      1 D:xz            2
                        (      28.861 eV)
    34     188       --         1.061 au  O             1.00      1 D:yz            2
                        (      28.861 eV)
    35     189      1.000      -0.167 au  Ag            1.00      1 S               3
                        (      -4.550 eV)
    36     190       --         0.050 au  Ag            1.00      2 S               3
                        (       1.356 eV)
    37     191       --         0.590 au  Ag            1.00      3 S               3
                        (      16.061 eV)
    38     192       --         0.013 au  Ag            1.00      1 P:x             3
                        (       0.354 eV)
    39     193       --         0.013 au  Ag            1.00      1 P:y             3
                        (       0.354 eV)
    40     194       --         0.013 au  Ag            1.00      1 P:z             3
                        (       0.354 eV)
    41     195      2.000      -0.277 au  Ag            1.00      1 D:z2            3
                        (      -7.546 eV)
    42     196       --         0.294 au  Ag            1.00      2 D:z2            3
                        (       8.000 eV)
    43     197       --         2.230 au  Ag            1.00      3 D:z2            3
                        (      60.692 eV)
    44     198      2.000      -0.277 au  Ag            1.00      1 D:x2-y2         3
                        (      -7.546 eV)
    45     199       --         0.294 au  Ag            1.00      2 D:x2-y2         3
                        (       8.000 eV)
    46     200       --         2.230 au  Ag            1.00      3 D:x2-y2         3
                        (      60.692 eV)
    47     201      2.000      -0.277 au  Ag            1.00      1 D:xy            3
                        (      -7.546 eV)
    48     202       --         0.294 au  Ag            1.00      2 D:xy            3
                        (       8.000 eV)
    49     203       --         2.230 au  Ag            1.00      3 D:xy            3
                        (      60.692 eV)
    50     204      2.000      -0.277 au  Ag            1.00      1 D:xz            3
                        (      -7.546 eV)
    51     205       --         0.294 au  Ag            1.00      2 D:xz            3
                        (       8.000 eV)
    52     206       --         2.230 au  Ag            1.00      3 D:xz            3
                        (      60.692 eV)
    53     207      2.000      -0.277 au  Ag            1.00      1 D:yz            3
                        (      -7.546 eV)
    54     208       --         0.294 au  Ag            1.00      2 D:yz            3
                        (       8.000 eV)
    55     209       --         2.230 au  Ag            1.00      3 D:yz            3
                        (      60.692 eV)
    56     210      1.000      -0.167 au  Ag            1.00      1 S               4
                        (      -4.550 eV)
    57     211       --         0.050 au  Ag            1.00      2 S               4
                        (       1.356 eV)
    58     212       --         0.590 au  Ag            1.00      3 S               4
                        (      16.061 eV)
    59     213       --         0.013 au  Ag            1.00      1 P:x             4
                        (       0.354 eV)
    60     214       --         0.013 au  Ag            1.00      1 P:y             4
                        (       0.354 eV)
    61     215       --         0.013 au  Ag            1.00      1 P:z             4
                        (       0.354 eV)
    62     216      2.000      -0.277 au  Ag            1.00      1 D:z2            4
                        (      -7.546 eV)
    63     217       --         0.294 au  Ag            1.00      2 D:z2            4
                        (       8.000 eV)
    64     218       --         2.230 au  Ag            1.00      3 D:z2            4
                        (      60.692 eV)
    65     219      2.000      -0.277 au  Ag            1.00      1 D:x2-y2         4
                        (      -7.546 eV)
    66     220       --         0.294 au  Ag            1.00      2 D:x2-y2         4
                        (       8.000 eV)
    67     221       --         2.230 au  Ag            1.00      3 D:x2-y2         4
                        (      60.692 eV)
    68     222      2.000      -0.277 au  Ag            1.00      1 D:xy            4
                        (      -7.546 eV)
    69     223       --         0.294 au  Ag            1.00      2 D:xy            4
                        (       8.000 eV)
    70     224       --         2.230 au  Ag            1.00      3 D:xy            4
                        (      60.692 eV)
    71     225      2.000      -0.277 au  Ag            1.00      1 D:xz            4
                        (      -7.546 eV)
    72     226       --         0.294 au  Ag            1.00      2 D:xz            4
                        (       8.000 eV)
    73     227       --         2.230 au  Ag            1.00      3 D:xz            4
                        (      60.692 eV)
    74     228      2.000      -0.277 au  Ag            1.00      1 D:yz            4
                        (      -7.546 eV)
    75     229       --         0.294 au  Ag            1.00      2 D:yz            4
                        (       8.000 eV)
    76     230       --         2.230 au  Ag            1.00      3 D:yz            4
                        (      60.692 eV)
    77     231      1.000      -0.167 au  Ag            1.00      1 S               5
                        (      -4.550 eV)
    78     232       --         0.050 au  Ag            1.00      2 S               5
                        (       1.356 eV)
    79     233       --         0.590 au  Ag            1.00      3 S               5
                        (      16.061 eV)
    80     234       --         0.013 au  Ag            1.00      1 P:x             5
                        (       0.354 eV)
    81     235       --         0.013 au  Ag            1.00      1 P:y             5
                        (       0.354 eV)
    82     236       --         0.013 au  Ag            1.00      1 P:z             5
                        (       0.354 eV)
    83     237      2.000      -0.277 au  Ag            1.00      1 D:z2            5
                        (      -7.546 eV)
    84     238       --         0.294 au  Ag            1.00      2 D:z2            5
                        (       8.000 eV)
    85     239       --         2.230 au  Ag            1.00      3 D:z2            5
                        (      60.692 eV)
    86     240      2.000      -0.277 au  Ag            1.00      1 D:x2-y2         5
                        (      -7.546 eV)
    87     241       --         0.294 au  Ag            1.00      2 D:x2-y2         5
                        (       8.000 eV)
    88     242       --         2.230 au  Ag            1.00      3 D:x2-y2         5
                        (      60.692 eV)
    89     243      2.000      -0.277 au  Ag            1.00      1 D:xy            5
                        (      -7.546 eV)
    90     244       --         0.294 au  Ag            1.00      2 D:xy            5
                        (       8.000 eV)
    91     245       --         2.230 au  Ag            1.00      3 D:xy            5
                        (      60.692 eV)
    92     246      2.000      -0.277 au  Ag            1.00      1 D:xz            5
                        (      -7.546 eV)
    93     247       --         0.294 au  Ag            1.00      2 D:xz            5
                        (       8.000 eV)
    94     248       --         2.230 au  Ag            1.00      3 D:xz            5
                        (      60.692 eV)
    95     249      2.000      -0.277 au  Ag            1.00      1 D:yz            5
                        (      -7.546 eV)
    96     250       --         0.294 au  Ag            1.00      2 D:yz            5
                        (       8.000 eV)
    97     251       --         2.230 au  Ag            1.00      3 D:yz            5
                        (      60.692 eV)
    98     252      1.000      -0.167 au  Ag            1.00      1 S               6
                        (      -4.550 eV)
    99     253       --         0.050 au  Ag            1.00      2 S               6
                        (       1.356 eV)
   100     254       --         0.590 au  Ag            1.00      3 S               6
                        (      16.061 eV)
   101     255       --         0.013 au  Ag            1.00      1 P:x             6
                        (       0.354 eV)
   102     256       --         0.013 au  Ag            1.00      1 P:y             6
                        (       0.354 eV)
   103     257       --         0.013 au  Ag            1.00      1 P:z             6
                        (       0.354 eV)
   104     258      2.000      -0.277 au  Ag            1.00      1 D:z2            6
                        (      -7.546 eV)
   105     259       --         0.294 au  Ag            1.00      2 D:z2            6
                        (       8.000 eV)
   106     260       --         2.230 au  Ag            1.00      3 D:z2            6
                        (      60.692 eV)
   107     261      2.000      -0.277 au  Ag            1.00      1 D:x2-y2         6
                        (      -7.546 eV)
   108     262       --         0.294 au  Ag            1.00      2 D:x2-y2         6
                        (       8.000 eV)
   109     263       --         2.230 au  Ag            1.00      3 D:x2-y2         6
                        (      60.692 eV)
   110     264      2.000      -0.277 au  Ag            1.00      1 D:xy            6
                        (      -7.546 eV)
   111     265       --         0.294 au  Ag            1.00      2 D:xy            6
                        (       8.000 eV)
   112     266       --         2.230 au  Ag            1.00      3 D:xy            6
                        (      60.692 eV)
   113     267      2.000      -0.277 au  Ag            1.00      1 D:xz            6
                        (      -7.546 eV)
   114     268       --         0.294 au  Ag            1.00      2 D:xz            6
                        (       8.000 eV)
   115     269       --         2.230 au  Ag            1.00      3 D:xz            6
                        (      60.692 eV)
   116     270      2.000      -0.277 au  Ag            1.00      1 D:yz            6
                        (      -7.546 eV)
   117     271       --         0.294 au  Ag            1.00      2 D:yz            6
                        (       8.000 eV)
   118     272       --         2.230 au  Ag            1.00      3 D:yz            6
                        (      60.692 eV)
   119     273      1.000      -0.167 au  Ag            1.00      1 S               7
                        (      -4.550 eV)
   120     274       --         0.050 au  Ag            1.00      2 S               7
                        (       1.356 eV)
   121     275       --         0.590 au  Ag            1.00      3 S               7
                        (      16.061 eV)
   122     276       --         0.013 au  Ag            1.00      1 P:x             7
                        (       0.354 eV)
   123     277       --         0.013 au  Ag            1.00      1 P:y             7
                        (       0.354 eV)
   124     278       --         0.013 au  Ag            1.00      1 P:z             7
                        (       0.354 eV)
   125     279      2.000      -0.277 au  Ag            1.00      1 D:z2            7
                        (      -7.546 eV)
   126     280       --         0.294 au  Ag            1.00      2 D:z2            7
                        (       8.000 eV)
   127     281       --         2.230 au  Ag            1.00      3 D:z2            7
                        (      60.692 eV)
   128     282      2.000      -0.277 au  Ag            1.00      1 D:x2-y2         7
                        (      -7.546 eV)
   129     283       --         0.294 au  Ag            1.00      2 D:x2-y2         7
                        (       8.000 eV)
   130     284       --         2.230 au  Ag            1.00      3 D:x2-y2         7
                        (      60.692 eV)
   131     285      2.000      -0.277 au  Ag            1.00      1 D:xy            7
                        (      -7.546 eV)
   132     286       --         0.294 au  Ag            1.00      2 D:xy            7
                        (       8.000 eV)
   133     287       --         2.230 au  Ag            1.00      3 D:xy            7
                        (      60.692 eV)
   134     288      2.000      -0.277 au  Ag            1.00      1 D:xz            7
                        (      -7.546 eV)
   135     289       --         0.294 au  Ag            1.00      2 D:xz            7
                        (       8.000 eV)
   136     290       --         2.230 au  Ag            1.00      3 D:xz            7
                        (      60.692 eV)
   137     291      2.000      -0.277 au  Ag            1.00      1 D:yz            7
                        (      -7.546 eV)
   138     292       --         0.294 au  Ag            1.00      2 D:yz            7
                        (       8.000 eV)
   139     293       --         2.230 au  Ag            1.00      3 D:yz            7
                        (      60.692 eV)
   140     294      1.000      -0.167 au  Ag            1.00      1 S               8
                        (      -4.550 eV)
   141     295       --         0.050 au  Ag            1.00      2 S               8
                        (       1.356 eV)
   142     296       --         0.590 au  Ag            1.00      3 S               8
                        (      16.061 eV)
   143     297       --         0.013 au  Ag            1.00      1 P:x             8
                        (       0.354 eV)
   144     298       --         0.013 au  Ag            1.00      1 P:y             8
                        (       0.354 eV)
   145     299       --         0.013 au  Ag            1.00      1 P:z             8
                        (       0.354 eV)
   146     300      2.000      -0.277 au  Ag            1.00      1 D:z2            8
                        (      -7.546 eV)
   147     301       --         0.294 au  Ag            1.00      2 D:z2            8
                        (       8.000 eV)
   148     302       --         2.230 au  Ag            1.00      3 D:z2            8
                        (      60.692 eV)
   149     303      2.000      -0.277 au  Ag            1.00      1 D:x2-y2         8
                        (      -7.546 eV)
   150     304       --         0.294 au  Ag            1.00      2 D:x2-y2         8
                        (       8.000 eV)
   151     305       --         2.230 au  Ag            1.00      3 D:x2-y2         8
                        (      60.692 eV)
   152     306      2.000      -0.277 au  Ag            1.00      1 D:xy            8
                        (      -7.546 eV)
   153     307       --         0.294 au  Ag            1.00      2 D:xy            8
                        (       8.000 eV)
   154     308       --         2.230 au  Ag            1.00      3 D:xy            8
                        (      60.692 eV)
   155     309      2.000      -0.277 au  Ag            1.00      1 D:xz            8
                        (      -7.546 eV)
   156     310       --         0.294 au  Ag            1.00      2 D:xz            8
                        (       8.000 eV)
   157     311       --         2.230 au  Ag            1.00      3 D:xz            8
                        (      60.692 eV)
   158     312      2.000      -0.277 au  Ag            1.00      1 D:yz            8
                        (      -7.546 eV)
   159     313       --         0.294 au  Ag            1.00      2 D:yz            8
                        (       8.000 eV)
   160     314       --         2.230 au  Ag            1.00      3 D:yz            8
                        (      60.692 eV)
   161     315      1.000      -0.167 au  Ag            1.00      1 S               9
                        (      -4.550 eV)
   162     316       --         0.050 au  Ag            1.00      2 S               9
                        (       1.356 eV)
   163     317       --         0.590 au  Ag            1.00      3 S               9
                        (      16.061 eV)
   164     318       --         0.013 au  Ag            1.00      1 P:x             9
                        (       0.354 eV)
   165     319       --         0.013 au  Ag            1.00      1 P:y             9
                        (       0.354 eV)
   166     320       --         0.013 au  Ag            1.00      1 P:z             9
                        (       0.354 eV)
   167     321      2.000      -0.277 au  Ag            1.00      1 D:z2            9
                        (      -7.546 eV)
   168     322       --         0.294 au  Ag            1.00      2 D:z2            9
                        (       8.000 eV)
   169     323       --         2.230 au  Ag            1.00      3 D:z2            9
                        (      60.692 eV)
   170     324      2.000      -0.277 au  Ag            1.00      1 D:x2-y2         9
                        (      -7.546 eV)
   171     325       --         0.294 au  Ag            1.00      2 D:x2-y2         9
                        (       8.000 eV)
   172     326       --         2.230 au  Ag            1.00      3 D:x2-y2         9
                        (      60.692 eV)
   173     327      2.000      -0.277 au  Ag            1.00      1 D:xy            9
                        (      -7.546 eV)
   174     328       --         0.294 au  Ag            1.00      2 D:xy            9
                        (       8.000 eV)
   175     329       --         2.230 au  Ag            1.00      3 D:xy            9
                        (      60.692 eV)
   176     330      2.000      -0.277 au  Ag            1.00      1 D:xz            9
                        (      -7.546 eV)
   177     331       --         0.294 au  Ag            1.00      2 D:xz            9
                        (       8.000 eV)
   178     332       --         2.230 au  Ag            1.00      3 D:xz            9
                        (      60.692 eV)
   179     333      2.000      -0.277 au  Ag            1.00      1 D:yz            9
                        (      -7.546 eV)
   180     334       --         0.294 au  Ag            1.00      2 D:yz            9
                        (       8.000 eV)
   181     335       --         2.230 au  Ag            1.00      3 D:yz            9
                        (      60.692 eV)
   182     336      1.000      -0.167 au  Ag            1.00      1 S              10
                        (      -4.550 eV)
   183     337       --         0.050 au  Ag            1.00      2 S              10
                        (       1.356 eV)
   184     338       --         0.590 au  Ag            1.00      3 S              10
                        (      16.061 eV)
   185     339       --         0.013 au  Ag            1.00      1 P:x            10
                        (       0.354 eV)
   186     340       --         0.013 au  Ag            1.00      1 P:y            10
                        (       0.354 eV)
   187     341       --         0.013 au  Ag            1.00      1 P:z            10
                        (       0.354 eV)
   188     342      2.000      -0.277 au  Ag            1.00      1 D:z2           10
                        (      -7.546 eV)
   189     343       --         0.294 au  Ag            1.00      2 D:z2           10
                        (       8.000 eV)
   190     344       --         2.230 au  Ag            1.00      3 D:z2           10
                        (      60.692 eV)
   191     345      2.000      -0.277 au  Ag            1.00      1 D:x2-y2        10
                        (      -7.546 eV)
   192     346       --         0.294 au  Ag            1.00      2 D:x2-y2        10
                        (       8.000 eV)
   193     347       --         2.230 au  Ag            1.00      3 D:x2-y2        10
                        (      60.692 eV)
   194     348      2.000      -0.277 au  Ag            1.00      1 D:xy           10
                        (      -7.546 eV)
   195     349       --         0.294 au  Ag            1.00      2 D:xy           10
                        (       8.000 eV)
   196     350       --         2.230 au  Ag            1.00      3 D:xy           10
                        (      60.692 eV)
   197     351      2.000      -0.277 au  Ag            1.00      1 D:xz           10
                        (      -7.546 eV)
   198     352       --         0.294 au  Ag            1.00      2 D:xz           10
                        (       8.000 eV)
   199     353       --         2.230 au  Ag            1.00      3 D:xz           10
                        (      60.692 eV)
   200     354      2.000      -0.277 au  Ag            1.00      1 D:yz           10
                        (      -7.546 eV)
   201     355       --         0.294 au  Ag            1.00      2 D:yz           10
                        (       8.000 eV)
   202     356       --         2.230 au  Ag            1.00      3 D:yz           10
                        (      60.692 eV)



 ================================
 (Slater-type)  F U N C T I O N S  ***  (Basis and Fit)  ***
 ================================
  

 Atom Type    1  (C)
 ==============

 Valence Basis Sets:   8
 -----------------------
   1 S    5.400000
   2 S    1.280000
   2 S    2.100000
   2 S    4.600000
   2 P    0.820000
   2 P    1.480000
   2 P    2.940000
   3 D    2.200000

 Frozen Core Shells
 ------------------
    S:  1

 Atom Type    2  (O)
 ==============

 Valence Basis Sets:   8
 -----------------------
   1 S    7.360000
   2 S    1.720000
   2 S    2.880000
   2 S    7.580000
   2 P    1.120000
   2 P    2.080000
   2 P    4.080000
   3 D    2.000000

 Frozen Core Shells
 ------------------
    S:  1

 Atom Type    3  (Ag)
 ==============

 Valence Basis Sets:  15
 -----------------------
   1 S   30.800000
   2 S   20.300000
   3 S    9.550000
   4 S    5.950000
   2 P   21.100000
   3 P   10.100000
   4 P    4.450000
   3 D   11.650000
   5 S    2.600000
   5 S    1.550000
   5 S    0.950000
   4 D    4.750000
   4 D    2.600000
   4 D    1.380000
   5 P    1.550000

 Frozen Core Shells
 ------------------
    S:  4
    P:  3
    D:  1


 BAS: List of all Elementary Cartesian Basis Functions
 =====================================================

 The numbering in the list below (to the right of the function characteristics) is referred
 to in print-outs of MO eigenvectors and Mulliken populations in the BAS representation
 (as contrasted to the SFO representation).

 Notes:
 1. The functions are characterized by a polynomial prefactor (powers of x,y,z and r) and
    an exponential decay factor alpha.
 2. Since the basis sets are specific for an atom TYPE, the individual functions occur on
    all atoms of that type.
 3. The word 'Core' in the left margin signals that it is a Core Function (CF) : not a
    degree of freedom in the valence set, but only used to ensure orthogonalization of
    the other valence basis functions on the frozen Core Orbitals.


 (power of) X  Y  Z  R     Alpha  on Atom
            ==========     =====     ==========

 C                                    1
                                  ---------------------------------------------------------------------------
    Core    0  0  0  0     5.400      1
            0  0  0  1     1.280      2
            0  0  0  1     2.100      3
            0  0  0  1     4.600      4
            1  0  0  0     0.820      5
            0  1  0  0     0.820      6
            0  0  1  0     0.820      7
            1  0  0  0     1.480      8
            0  1  0  0     1.480      9
            0  0  1  0     1.480     10
            1  0  0  0     2.940     11
            0  1  0  0     2.940     12
            0  0  1  0     2.940     13
            2  0  0  0     2.200     14
            1  1  0  0     2.200     15
            1  0  1  0     2.200     16
            0  2  0  0     2.200     17
            0  1  1  0     2.200     18
            0  0  2  0     2.200     19

 O                                    2
                                  ---------------------------------------------------------------------------
    Core    0  0  0  0     7.360     20
            0  0  0  1     1.720     21
            0  0  0  1     2.880     22
            0  0  0  1     7.580     23
            1  0  0  0     1.120     24
            0  1  0  0     1.120     25
            0  0  1  0     1.120     26
            1  0  0  0     2.080     27
            0  1  0  0     2.080     28
            0  0  1  0     2.080     29
            1  0  0  0     4.080     30
            0  1  0  0     4.080     31
            0  0  1  0     4.080     32
            2  0  0  0     2.000     33
            1  1  0  0     2.000     34
            1  0  1  0     2.000     35
            0  2  0  0     2.000     36
            0  1  1  0     2.000     37
            0  0  2  0     2.000     38

 Ag                                   3    4    5    6    7    8    9   10
                                  ---------------------------------------------------------------------------
    Core    0  0  0  0    30.800     39   82  125  168  211  254  297  340
    Core    0  0  0  1    20.300     40   83  126  169  212  255  298  341
    Core    0  0  0  2     9.550     41   84  127  170  213  256  299  342
    Core    0  0  0  3     5.950     42   85  128  171  214  257  300  343
    Core    1  0  0  0    21.100     43   86  129  172  215  258  301  344
    Core    0  1  0  0    21.100     44   87  130  173  216  259  302  345
    Core    0  0  1  0    21.100     45   88  131  174  217  260  303  346
    Core    1  0  0  1    10.100     46   89  132  175  218  261  304  347
    Core    0  1  0  1    10.100     47   90  133  176  219  262  305  348
    Core    0  0  1  1    10.100     48   91  134  177  220  263  306  349
    Core    1  0  0  2     4.450     49   92  135  178  221  264  307  350
    Core    0  1  0  2     4.450     50   93  136  179  222  265  308  351
    Core    0  0  1  2     4.450     51   94  137  180  223  266  309  352
    Core    2  0  0  0    11.650     52   95  138  181  224  267  310  353
    Core    1  1  0  0    11.650     53   96  139  182  225  268  311  354
    Core    1  0  1  0    11.650     54   97  140  183  226  269  312  355
    Core    0  2  0  0    11.650     55   98  141  184  227  270  313  356
    Core    0  1  1  0    11.650     56   99  142  185  228  271  314  357
    Core    0  0  2  0    11.650     57  100  143  186  229  272  315  358
            0  0  0  4     2.600     58  101  144  187  230  273  316  359
            0  0  0  4     1.550     59  102  145  188  231  274  317  360
            0  0  0  4     0.950     60  103  146  189  232  275  318  361
            2  0  0  1     4.750     61  104  147  190  233  276  319  362
            1  1  0  1     4.750     62  105  148  191  234  277  320  363
            1  0  1  1     4.750     63  106  149  192  235  278  321  364
            0  2  0  1     4.750     64  107  150  193  236  279  322  365
            0  1  1  1     4.750     65  108  151  194  237  280  323  366
            0  0  2  1     4.750     66  109  152  195  238  281  324  367
            2  0  0  1     2.600     67  110  153  196  239  282  325  368
            1  1  0  1     2.600     68  111  154  197  240  283  326  369
            1  0  1  1     2.600     69  112  155  198  241  284  327  370
            0  2  0  1     2.600     70  113  156  199  242  285  328  371
            0  1  1  1     2.600     71  114  157  200  243  286  329  372
            0  0  2  1     2.600     72  115  158  201  244  287  330  373
            2  0  0  1     1.380     73  116  159  202  245  288  331  374
            1  1  0  1     1.380     74  117  160  203  246  289  332  375
            1  0  1  1     1.380     75  118  161  204  247  290  333  376
            0  2  0  1     1.380     76  119  162  205  248  291  334  377
            0  1  1  1     1.380     77  120  163  206  249  292  335  378
            0  0  2  1     1.380     78  121  164  207  250  293  336  379
            1  0  0  3     1.550     79  122  165  208  251  294  337  380
            0  1  0  3     1.550     80  123  166  209  252  295  338  381
            0  0  1  3     1.550     81  124  167  210  253  296  339  382

 Total number of charge fitting functions (nprimf)      1884
 Total number of Cartesian basis functions (naos)        382
 Total number of Cartesian core functions  (ncos)        154

1
 ***************************************************************************************************



                                              ***********************
                                              *  T E C H N I C A L  *
                                              ***********************
  



 =============================================================
 P A R A L L E L I Z A T I O N  and  V E C T O R I Z A T I O N
 =============================================================
  
 Nr of parallel processes:                               20
 Maximum vector length in NumInt loops:                 128



 =====================
 S C F   U P D A T E S
 =====================
  
 Max. nr. of cycles:                               300
 Convergence criterion:                              0.0000010000
   secondary criterion:                              0.0010000000

 Mix parameter (when DIIS does not apply):           0.2000000000
 Mixed ADIIS+SDIIS will be used                  
    Max number of expansion vectors:                10
    Pure ADIIS when Max([F,P]) is above              0.1000000000
    Pure SDIIS when Max([F,P]) is below              0.0010000000
 Automatic ElectronSmearing (in case of problematic SCF convergence) disabled



 =================
 P R E C I S I O N  ***  (General: NumInt, NeglectFunctionTails, ...)  ***
 =================
  

 NumInt:           Target precision:                 4.0000000000
 -------           Initial precision:                4.0000000000
                   Min. precision (optimization):    4.0000000000

 Neglect Functions:          Basis functions:        0.1000000000E-13
 ------------------          Fit functions:          0.1000000000E-13



 ===========================
 L I N E A R   S C A L I N G
 ===========================
  

 Cut-off radii density fit:                        0.1000000000E-07
 Overlap cut-off criterion AO matrix elements:     0.1000000000E-05
 Cut-offs for Coulomb potential and fitted density:0.1000000000E-07
 Cut-off criterion for Coulomb multipole terms:    0.1000000000E-07
 Progressive Convergence parameter:                 0.000000000    
1
 ***************************************************************************************************



                                            ***************************
                                            *  C O M P U T A T I O N  *
                                            ***************************
  

 Number of elements of the density matrix on this node (used, total):      4102     73153



 ===========================================
 Numerical Integration : Fuzzy Cells (Becke)
 ===========================================
  
 Becke grid quality: NORMAL         
  
 Lebedev angular grid order:             min:  11 max:  23
 Nr. of radial points:                   min:  49 max:  83

 Total nr. of points:      97932
 Nr. of blocks:              766
 Block length:               128
 Nr. of dummy points:        116


 Test of Precision of the Numerical Integration Grid
 ===================================================

 Integral of the Total Core Density:                 291.99998537136253
 Relative Error:                                      -5.010E-08



 ========================
 Density Fitting (zlmFit)
 ========================
  
 ZlmFit Fit Quality: NORMAL         
  
 Max L-expansion:                        min:   6 max:   6
 Nr. of radial interpolation points:     min:  42 max:  69



 =====
 S C F  ***  ScaSCF  ***
 =====
  
 Initial density matrix is calculated as sum of fragments

 CYCLE    1
 SCF Error: norm([F,P])=      1.120192248735, max([F,P])=      0.402636653311
 orbitals (Q,E):
 ---------------
 A :40...59          ( 2.00    -0.2656)  ( 2.00    -0.2643)  ( 2.00    -0.2631)  ( 2.00    -0.2630)
                     ( 2.00    -0.2627)  ( 2.00    -0.2614)  ( 2.00    -0.2605)  ( 2.00    -0.2134)
                     ( 2.00    -0.1945)  ( 2.00    -0.1907)  ( 0.00    -0.1447)  ( 0.00    -0.1433)
                     ( 0.00    -0.1165)  ( 0.00    -0.1142)  ( 0.00    -0.1108)  ( 0.00    -0.0897)
                     ( 0.00    -0.0643)  ( 0.00    -0.0554)  ( 0.00    -0.0262)  ( 0.00    -0.0162)

 CYCLE    2
  SDIIS (wt  0.000):  0.3448  0.6552
 A-DIIS (wt  1.000):  0.0000  1.0000
  DIIS coefficients:  0.0000  1.0000
 SCF Error: norm([F,P])=      0.745884682225, max([F,P])=      0.155416744746
 orbitals (Q,E):
 ---------------
 A :40...50          ( 2.00    -0.2910)  ( 2.00    -0.2908)  ( 2.00    -0.2893)  ( 2.00    -0.2879)
                     ( 2.00    -0.2265)  ( 2.00    -0.2212)  ( 2.00    -0.2120)  ( 2.00    -0.1974)
                     ( 2.00    -0.1919)  ( 2.00    -0.1738)  ( 0.00    -0.1313)

 CYCLE    3
  SDIIS (wt  0.000):  0.0941  0.6629  0.2430
 A-DIIS (wt  1.000):  0.0000  0.7875  0.2125
  DIIS coefficients:  0.0000  0.7875  0.2125
 SCF Error: norm([F,P])=      1.803579043617, max([F,P])=      0.586209008623
 orbitals (Q,E):
 ---------------
 A :40...50          ( 2.00    -0.2727)  ( 2.00    -0.2707)  ( 2.00    -0.2702)  ( 2.00    -0.2684)
                     ( 2.00    -0.2675)  ( 2.00    -0.2659)  ( 2.00    -0.2564)  ( 2.00    -0.2093)
                     ( 2.00    -0.1834)  ( 2.00    -0.1697)  ( 0.00    -0.1182)

 CYCLE    4
  SDIIS (wt  0.087):  0.4433  0.0890  0.4677
 A-DIIS (wt  0.913):  0.3392  0.0000  0.6608
  DIIS coefficients:  0.3483  0.0077  0.6440
 SCF Error: norm([F,P])=      0.447095898006, max([F,P])=      0.091390294988
 orbitals (Q,E):
 ---------------
 A :40...50          ( 2.00    -0.2606)  ( 2.00    -0.2598)  ( 2.00    -0.2584)  ( 2.00    -0.2560)
                     ( 2.00    -0.2550)  ( 2.00    -0.2543)  ( 2.00    -0.2527)  ( 2.00    -0.2045)
                     ( 2.00    -0.1823)  ( 2.00    -0.1742)  ( 0.00    -0.1189)

 CYCLE    5
  SDIIS (wt  0.000):  0.2054 -0.0495  0.5150  0.3291
 A-DIIS (wt  1.000):  0.1723  0.0000  0.4455  0.3822
  DIIS coefficients:  0.1723  0.0000  0.4455  0.3822
 SCF Error: norm([F,P])=      0.466711683931, max([F,P])=      0.161545050986
 orbitals (Q,E):
 ---------------
 A :40...50          ( 2.00    -0.2643)  ( 2.00    -0.2634)  ( 2.00    -0.2617)  ( 2.00    -0.2610)
                     ( 2.00    -0.2600)  ( 2.00    -0.2585)  ( 2.00    -0.2561)  ( 2.00    -0.2057)
                     ( 2.00    -0.1820)  ( 2.00    -0.1751)  ( 0.00    -0.1158)

 CYCLE    6
  SDIIS (wt  0.000):  0.0526 -0.0199  0.2893  0.3471  0.3309
 A-DIIS (wt  1.000):  0.0000  0.0000  0.0462  0.3654  0.5884
  DIIS coefficients:  0.0000  0.0000  0.0462  0.3654  0.5884
 SCF Error: norm([F,P])=      0.344525728783, max([F,P])=      0.112074833665
 orbitals (Q,E):
 ---------------
 A :40...50          ( 2.00    -0.2689)  ( 2.00    -0.2674)  ( 2.00    -0.2665)  ( 2.00    -0.2623)
                     ( 2.00    -0.2619)  ( 2.00    -0.2599)  ( 2.00    -0.2587)  ( 2.00    -0.2089)
                     ( 2.00    -0.1851)  ( 2.00    -0.1744)  ( 0.00    -0.1174)

 CYCLE    7
  SDIIS (wt  0.506): -0.0163 -0.0079  0.0792  0.2709  0.4404  0.2337
 A-DIIS (wt  0.494):  0.0000  0.0000  0.0000  0.1055  0.4044  0.4901
  DIIS coefficients: -0.0083 -0.0040  0.0401  0.1892  0.4226  0.3603
 SCF Error: norm([F,P])=      0.233343019394, max([F,P])=      0.049888476531
 orbitals (Q,E):
 ---------------
 A :40...50          ( 2.00    -0.2611)  ( 2.00    -0.2605)  ( 2.00    -0.2594)  ( 2.00    -0.2581)
                     ( 2.00    -0.2576)  ( 2.00    -0.2562)  ( 2.00    -0.2561)  ( 2.00    -0.2042)
                     ( 2.00    -0.1804)  ( 2.00    -0.1730)  ( 0.00    -0.1154)

 CYCLE    8
  SDIIS (wt  0.853): -0.0129 -0.0062  0.0245  0.1424  0.3171  0.2812  0.2538
 A-DIIS (wt  0.147):  0.0000  0.0000  0.0000  0.0000  0.0431  0.2090  0.7479
  DIIS coefficients: -0.0110 -0.0053  0.0209  0.1216  0.2769  0.2707  0.3262
 SCF Error: norm([F,P])=      0.090383214968, max([F,P])=      0.015504352368
 orbitals (Q,E):
 ---------------
 A :40...50          ( 2.00    -0.2648)  ( 2.00    -0.2627)  ( 2.00    -0.2621)  ( 2.00    -0.2606)
                     ( 2.00    -0.2598)  ( 2.00    -0.2592)  ( 2.00    -0.2583)  ( 2.00    -0.2058)
                     ( 2.00    -0.1823)  ( 2.00    -0.1736)  ( 0.00    -0.1158)

 CYCLE    9
  SDIIS (wt  0.948): -0.0051 -0.0010 -0.0116  0.0061  0.1000  0.1774  0.3528  0.3814
 A-DIIS (wt  0.052):  0.0000  0.0000  0.0000  0.0000  0.0000  0.0000  0.2065  0.7935
  DIIS coefficients: -0.0048 -0.0010 -0.0110  0.0058  0.0948  0.1681  0.3452  0.4028
 SCF Error: norm([F,P])=      0.034382424655, max([F,P])=      0.006150588199
 orbitals (Q,E):
 ---------------
 A :40...50          ( 2.00    -0.2637)  ( 2.00    -0.2634)  ( 2.00    -0.2621)  ( 2.00    -0.2608)
                     ( 2.00    -0.2603)  ( 2.00    -0.2596)  ( 2.00    -0.2585)  ( 2.00    -0.2060)
                     ( 2.00    -0.1823)  ( 2.00    -0.1740)  ( 0.00    -0.1160)

 CYCLE   10
  SDIIS (wt  0.998): -0.0021 -0.0006 -0.0071 -0.0033  0.0446  0.0931  0.2171  0.2974  0.3609
 A-DIIS (wt  0.002):  0.0000  0.0000  0.0000  0.0000  0.0000  0.0000  0.0000  0.0488  0.9512
  DIIS coefficients: -0.0021 -0.0006 -0.0071 -0.0033  0.0445  0.0929  0.2167  0.2969  0.3621
 SCF Error: norm([F,P])=      0.007540996723, max([F,P])=      0.001191359468
 orbitals (Q,E):
 ---------------
 A :40...50          ( 2.00    -0.2637)  ( 2.00    -0.2631)  ( 2.00    -0.2620)  ( 2.00    -0.2605)
                     ( 2.00    -0.2600)  ( 2.00    -0.2594)  ( 2.00    -0.2583)  ( 2.00    -0.2059)
                     ( 2.00    -0.1822)  ( 2.00    -0.1738)  ( 0.00    -0.1159)

 CYCLE   11
  SDIIS (wt  1.000):  0.0002 -0.0004 -0.0010 -0.0028  0.0113  0.0288  0.0815  0.1343  0.2534  0.4949
  DIIS coefficients:  0.0002 -0.0004 -0.0010 -0.0028  0.0113  0.0288  0.0815  0.1343  0.2534  0.4949
 SCF Error: norm([F,P])=      0.001951911895, max([F,P])=      0.000275073596
 orbitals (Q,E):
 ---------------
 A :40...50          ( 2.00    -0.2637)  ( 2.00    -0.2631)  ( 2.00    -0.2619)  ( 2.00    -0.2605)
                     ( 2.00    -0.2600)  ( 2.00    -0.2594)  ( 2.00    -0.2583)  ( 2.00    -0.2058)
                     ( 2.00    -0.1821)  ( 2.00    -0.1738)  ( 0.00    -0.1159)

 CYCLE   12
  SDIIS (wt  1.000): -0.0001 -0.0003 -0.0008  0.0026  0.0056  0.0188  0.0415  0.1094  0.2831  0.5402
  DIIS coefficients: -0.0001 -0.0003 -0.0008  0.0026  0.0056  0.0188  0.0415  0.1094  0.2831  0.5402
 SCF Error: norm([F,P])=      0.000663880560, max([F,P])=      0.000137165227
 orbitals (Q,E):
 ---------------
 A :40...50          ( 2.00    -0.2637)  ( 2.00    -0.2631)  ( 2.00    -0.2619)  ( 2.00    -0.2605)
                     ( 2.00    -0.2600)  ( 2.00    -0.2594)  ( 2.00    -0.2583)  ( 2.00    -0.2058)
                     ( 2.00    -0.1821)  ( 2.00    -0.1738)  ( 0.00    -0.1159)

 CYCLE   13
  SDIIS (wt  1.000): -0.0002 -0.0006  0.0004  0.0003  0.0047  0.0182  0.0625  0.1699  0.4305  0.3142
  DIIS coefficients: -0.0002 -0.0006  0.0004  0.0003  0.0047  0.0182  0.0625  0.1699  0.4305  0.3142
 SCF Error: norm([F,P])=      0.000425977468, max([F,P])=      0.000063056643
 orbitals (Q,E):
 ---------------
 A :40...50          ( 2.00    -0.2637)  ( 2.00    -0.2631)  ( 2.00    -0.2619)  ( 2.00    -0.2606)
                     ( 2.00    -0.2600)  ( 2.00    -0.2594)  ( 2.00    -0.2583)  ( 2.00    -0.2058)
                     ( 2.00    -0.1821)  ( 2.00    -0.1738)  ( 0.00    -0.1159)

 CYCLE   14
  SDIIS (wt  1.000): -0.0002  0.0002  0.0000  0.0024  0.0104  0.0374  0.0963  0.2532  0.2134  0.3869
  DIIS coefficients: -0.0002  0.0002  0.0000  0.0024  0.0104  0.0374  0.0963  0.2532  0.2134  0.3869
 SCF Error: norm([F,P])=      0.000091785053, max([F,P])=      0.000014791702
 orbitals (Q,E):
 ---------------
 A :40...50          ( 2.00    -0.2637)  ( 2.00    -0.2631)  ( 2.00    -0.2620)  ( 2.00    -0.2606)
                     ( 2.00    -0.2600)  ( 2.00    -0.2594)  ( 2.00    -0.2583)  ( 2.00    -0.2058)
                     ( 2.00    -0.1821)  ( 2.00    -0.1738)  ( 0.00    -0.1159)

 CYCLE   15
  SDIIS (wt  1.000):  0.0002  0.0001  0.0006  0.0026  0.0109  0.0248  0.0820  0.0822  0.2784  0.5181
  DIIS coefficients:  0.0002  0.0001  0.0006  0.0026  0.0109  0.0248  0.0820  0.0822  0.2784  0.5181
 SCF Error: norm([F,P])=      0.000045307893, max([F,P])=      0.000005783760
 orbitals (Q,E):
 ---------------
 A :40...50          ( 2.00    -0.2637)  ( 2.00    -0.2631)  ( 2.00    -0.2620)  ( 2.00    -0.2606)
                     ( 2.00    -0.2600)  ( 2.00    -0.2594)  ( 2.00    -0.2583)  ( 2.00    -0.2058)
                     ( 2.00    -0.1821)  ( 2.00    -0.1738)  ( 0.00    -0.1159)

 CYCLE   16
  SDIIS (wt  1.000): -0.0000 -0.0001  0.0004  0.0027  0.0060  0.0220  0.0209  0.1067  0.2608  0.5807
  DIIS coefficients: -0.0000 -0.0001  0.0004  0.0027  0.0060  0.0220  0.0209  0.1067  0.2608  0.5807
 SCF Error: norm([F,P])=      0.000010666818, max([F,P])=      0.000001327925
 orbitals (Q,E):
 ---------------
 A :40...50          ( 2.00    -0.2637)  ( 2.00    -0.2631)  ( 2.00    -0.2620)  ( 2.00    -0.2606)
                     ( 2.00    -0.2600)  ( 2.00    -0.2594)  ( 2.00    -0.2583)  ( 2.00    -0.2058)
                     ( 2.00    -0.1821)  ( 2.00    -0.1738)  ( 0.00    -0.1159)

 CYCLE   17
  SDIIS (wt  1.000): -0.0000  0.0001  0.0008  0.0016  0.0063  0.0066  0.0507  0.1265  0.3318  0.4757
  DIIS coefficients: -0.0000  0.0001  0.0008  0.0016  0.0063  0.0066  0.0507  0.1265  0.3318  0.4757
 SCF Error: norm([F,P])=      0.000002714163, max([F,P])=      0.000000498170
 orbitals (Q,E):
 ---------------
 A :40...50          ( 2.00    -0.2637)  ( 2.00    -0.2631)  ( 2.00    -0.2620)  ( 2.00    -0.2606)
                     ( 2.00    -0.2600)  ( 2.00    -0.2594)  ( 2.00    -0.2583)  ( 2.00    -0.2058)
                     ( 2.00    -0.1821)  ( 2.00    -0.1738)  ( 0.00    -0.1159)

 SCF CONVERGED

 CYCLE   18
1
 ***************************************************************************************************



                                                *******************
                                                *  R E S U L T S  *
                                                *******************
  
 *** Using FIT density in Focky
  SDIIS (wt  1.000):  0.0000  0.0002  0.0005  0.0013  0.0014  0.0143  0.0313  0.1086  0.2944  0.5480
  DIIS coefficients:  0.0000  0.0002  0.0005  0.0013  0.0014  0.0143  0.0313  0.1086  0.2944  0.5480
 SCF Error: norm([F,P])=      0.000001337917, max([F,P])=      0.000000260566

 Scaled ZORA Orbital Energies, per Irrep and Spin:
 =================================================
                        Occup              E (au)              E (eV)       Diff (eV) with prev. cycle
                        -----      --------------------        ------       --------------------------
 A
              40        2.000     -0.26368823540197E+00        -7.175               2.39E-08
              41        2.000     -0.26309766049078E+00        -7.159               4.62E-07
              42        2.000     -0.26195122755974E+00        -7.128              -6.60E-08
              43        2.000     -0.26055561535953E+00        -7.090               3.24E-07
              44        2.000     -0.26002322323741E+00        -7.076               2.86E-07
              45        2.000     -0.25943613499180E+00        -7.060               1.14E-07
              46        2.000     -0.25831276080476E+00        -7.029               1.37E-07
              47        2.000     -0.20584364792642E+00        -5.601               3.86E-07
              48        2.000     -0.18214668220213E+00        -4.956               6.37E-07
              49        2.000     -0.17377751888911E+00        -4.729               1.18E-06
              50        0.000     -0.11590239624921E+00        -3.154
              51        0.000     -0.10897457825573E+00        -2.965
              52        0.000     -0.10763800503991E+00        -2.929
              53        0.000     -0.10157021714822E+00        -2.764
              54        0.000     -0.89049754455004E-01        -2.423
              55        0.000     -0.74755281940764E-01        -2.034
              56        0.000     -0.47713476317117E-01        -1.298
              57        0.000     -0.38732017210159E-01        -1.054
              58        0.000     -0.17485185376456E-01        -0.476
              59        0.000     -0.82925389048440E-02        -0.226
  
 HOMO :       49 A                -0.17377751888911E+00
 LUMO :       50 A                -0.11590239624921E+00
  


 Scaled ZORA Orbital Energies of the Core Orbitals:
 ==================================================

 (Note that the atoms are grouped by atomtype, see the labels, and may hence NOT be in input order)

 AtomType  Orbital  Atom                   E (au)                        E (eV)
 --------  -------  ----           --------------------        ----------------
 C           1S        1          -0.10043997205953E+02                -273.311
 O           1S        2          -0.18901076731508E+02                -514.324
 Ag          1S        3          -0.93043267927079E+03              -25318.361
                       4          -0.93040899610877E+03              -25317.717
                       5          -0.93041179751747E+03              -25317.793
                       6          -0.93040950347672E+03              -25317.731
                       7          -0.93040860265368E+03              -25317.706
                       8          -0.93041284657736E+03              -25317.822
                       9          -0.93040802978442E+03              -25317.691
                      10          -0.93041301311840E+03              -25317.826
             2S        3          -0.13699155141620E+03               -3727.730
                       4          -0.13696761840819E+03               -3727.079
                       5          -0.13697045867326E+03               -3727.156
                       6          -0.13696814157098E+03               -3727.093
                       7          -0.13696731962833E+03               -3727.070
                       8          -0.13697151371957E+03               -3727.185
                       9          -0.13696665209226E+03               -3727.052
                      10          -0.13697167920292E+03               -3727.189
             3S        3          -0.25131748917091E+02                -683.870
                       4          -0.25108555370715E+02                -683.239
                       5          -0.25111480351551E+02                -683.318
                       6          -0.25109046064314E+02                -683.252
                       7          -0.25108309900587E+02                -683.232
                       8          -0.25112533863121E+02                -683.347
                       9          -0.25107591645017E+02                -683.212
                      10          -0.25112713447118E+02                -683.352
             4S        3          -0.35364574732297E+01                 -96.232
                       4          -0.35151009535246E+01                 -95.651
                       5          -0.35182665700337E+01                 -95.737
                       6          -0.35155234156355E+01                 -95.662
                       7          -0.35150028463266E+01                 -95.648
                       8          -0.35193129108869E+01                 -95.765
                       9          -0.35141518006316E+01                 -95.625
                      10          -0.35195263156672E+01                 -95.771
             2P        3          -0.12284383703974E+03               -3342.751
                       4          -0.12281990493048E+03               -3342.100
                       5          -0.12282274348912E+03               -3342.177
                       6          -0.12282042797543E+03               -3342.114
                       7          -0.12281960124231E+03               -3342.091
                       8          -0.12282379833522E+03               -3342.206
                       9          -0.12281893864826E+03               -3342.073
                      10          -0.12282396321243E+03               -3342.210
             3P        3          -0.20515976672709E+02                -558.268
                       4          -0.20492780036954E+02                -557.637
                       5          -0.20495705492862E+02                -557.717
                       6          -0.20493271030578E+02                -557.650
                       7          -0.20492535418566E+02                -557.630
                       8          -0.20496759078342E+02                -557.745
                       9          -0.20491816348989E+02                -557.611
                      10          -0.20496938546832E+02                -557.750
             4P        3          -0.22003067444628E+01                 -59.873
                       4          -0.21794639260342E+01                 -59.306
                       5          -0.21827169939700E+01                 -59.395
                       6          -0.21798685287267E+01                 -59.317
                       7          -0.21794176465556E+01                 -59.305
                       8          -0.21837608287803E+01                 -59.423
                       9          -0.21785153403198E+01                 -59.280
                      10          -0.21839807244479E+01                 -59.429
             3D        3          -0.13215599839224E+02                -359.615
                       4          -0.13192301962216E+02                -358.981
                       5          -0.13195218487318E+02                -359.060
                       6          -0.13192797608181E+02                -358.994
                       7          -0.13192055046097E+02                -358.974
                       8          -0.13196272537494E+02                -359.089
                       9          -0.13191337898503E+02                -358.955
                      10          -0.13196450401715E+02                -359.094


 Fit test: (difference of exact and fit density, squared integrated, result summed over spins)
         Sum-of-Fragments:                             0.00000000005601
         Orthogonalized Fragments:                     0.00008360377348
         SCF:                                          0.00028139918172



 ==========================
 Electron Density at Nuclei
 ==========================
  
 The electron density is calculated at points on a small sphere around the center of a nucleus.
 The printed electron density is the average electron density on these points.
 The radius of the sphere is the printed approximate finite nuclear radius.
 Note: ZORA-4 density is used, which includes small component density

         Atom        Nuclear Radius (Angstrom)             Electron Density (a.u.)
         ----        -------------------------             -----------------------
     1)   C                 0.0000320678                              127.51745
     2)   O                 0.0000345546                              316.13451
     3)   Ag                0.0000585966                           141430.03275
     4)   Ag                0.0000585966                           141430.02655
     5)   Ag                0.0000585966                           141430.48774
     6)   Ag                0.0000585966                           141430.05942
     7)   Ag                0.0000585966                           141430.61056
     8)   Ag                0.0000585966                           141430.51816
     9)   Ag                0.0000585966                           141430.02640
    10)   Ag                0.0000585966                           141430.49515



 =======================================
 M U L L I K E N   P O P U L A T I O N S
 =======================================
  
 The survey below gives for each atom:
 a) the total charge (Z minus electrons)
 b) the net spin polarization (nr of electrons spin-A minus spin-B)
 c) for each spin the atomic electron valence density (integrated) per L-value.

 Atom              Charge    Spin density          S         P         D         F
 ----              ------    ------------       ------    ------    ------    ------
 1 C               0.2759                       1.6102    2.0304    0.0835    0.0000
 2 O              -0.2891                       1.8702    4.3610    0.0580    0.0000
 3 Ag              0.1186                       0.7026    0.4129    9.7660    0.0000
 4 Ag              0.0627                       0.8359    0.2635    9.8379    0.0000
 5 Ag             -0.0728                       0.9811    0.2158    9.8758    0.0000
 6 Ag              0.0603                       0.8399    0.2640    9.8357    0.0000
 7 Ag             -0.0844                       0.9904    0.2199    9.8742    0.0000
 8 Ag             -0.0689                       0.9824    0.2109    9.8756    0.0000
 9 Ag              0.0659                       0.8296    0.2651    9.8394    0.0000
 10 Ag            -0.0682                       0.9777    0.2147    9.8758    0.0000

 Populations of individual BAS functions
 ----------------------------------------
 1 C            0.0007  0.7648  0.8780 -0.0333 -0.0111 -0.0022 -0.0205  0.5098  0.4980  0.5787
                0.1546  0.1290  0.1942  0.0084  0.0104  0.0180  0.0017  0.0185  0.0265
 2 O            0.0005  0.8941  0.9928 -0.0171  0.2900  0.3179  0.2478  0.8918  0.8805  0.9217
                0.2674  0.2627  0.2813  0.0083  0.0074  0.0124 -0.0017  0.0123  0.0193
 3 Ag          -0.0003  0.0002 -0.0022  0.0287  0.0000  0.0000  0.0000  0.0001  0.0001  0.0001
                0.0011  0.0014  0.0021  0.0384  0.0575  0.0569  0.0380  0.0578  0.0380  0.2629
                0.4541 -0.0408  0.5510  0.8194  0.8108  0.5412  0.8231  0.5386  0.6502  0.9540
                0.9482  0.6293  0.9537  0.6187  0.0954  0.1328  0.1271  0.0907  0.1253  0.0699
                0.1365  0.1223  0.1491
 4 Ag          -0.0003  0.0002 -0.0023  0.0284  0.0000  0.0000  0.0000  0.0000  0.0001  0.0001
                0.0007  0.0011  0.0010  0.0384  0.0575  0.0578  0.0383  0.0570  0.0384  0.2820
                0.5028  0.0251  0.5505  0.8197  0.8237  0.5422  0.8124  0.5478  0.6472  0.9566
                0.9615  0.6233  0.9538  0.6412  0.0927  0.1317  0.1240  0.0927  0.1369  0.0928
                0.0496  0.0900  0.1209
 5 Ag          -0.0003  0.0002 -0.0024  0.0296  0.0000  0.0000  0.0000  0.0000  0.0000  0.0000
                0.0006  0.0007  0.0007  0.0382  0.0576  0.0574  0.0383  0.0575  0.0383  0.3201
                0.6073  0.0268  0.5462  0.8216  0.8190  0.5439  0.8200  0.5469  0.6440  0.9587
                0.9550  0.6269  0.9572  0.6431  0.0891  0.1416  0.1430  0.1013  0.1448  0.0864
                0.0698  0.0594  0.0845
 6 Ag          -0.0003  0.0002 -0.0023  0.0285  0.0000  0.0000  0.0000  0.0000  0.0001  0.0001
                0.0007  0.0011  0.0010  0.0384  0.0575  0.0578  0.0383  0.0570  0.0384  0.2827
                0.5047  0.0265  0.5505  0.8196  0.8233  0.5423  0.8123  0.5478  0.6475  0.9565
                0.9606  0.6231  0.9537  0.6410  0.0923  0.1317  0.1237  0.0928  0.1368  0.0931
                0.0503  0.0905  0.1202
 7 Ag          -0.0003  0.0002 -0.0025  0.0300  0.0000  0.0000  0.0000  0.0000  0.0000  0.0000
                0.0006  0.0007  0.0008  0.0382  0.0576  0.0574  0.0383  0.0574  0.0383  0.3225
                0.6097  0.0309  0.5461  0.8213  0.8187  0.5445  0.8193  0.5467  0.6443  0.9584
                0.9542  0.6266  0.9560  0.6418  0.0886  0.1419  0.1430  0.1029  0.1464  0.0861
                0.0680  0.0566  0.0931
 8 Ag          -0.0003  0.0002 -0.0024  0.0297  0.0000  0.0000  0.0000  0.0000  0.0000  0.0000
                0.0008  0.0007  0.0005  0.0383  0.0574  0.0574  0.0383  0.0576  0.0383  0.3193
                0.6066  0.0293  0.5465  0.8192  0.8187  0.5450  0.8211  0.5470  0.6394  0.9562
                0.9553  0.6281  0.9587  0.6478  0.0861  0.1465  0.1427  0.1017  0.1412  0.0872
                0.0850  0.0593  0.0645
 9 Ag          -0.0003  0.0002 -0.0023  0.0284  0.0000  0.0000  0.0000  0.0000  0.0001  0.0000
                0.0009  0.0012  0.0008  0.0383  0.0570  0.0578  0.0383  0.0576  0.0384  0.2817
                0.4972  0.0247  0.5475  0.8124  0.8233  0.5422  0.8204  0.5504  0.6414  0.9541
                0.9612  0.6221  0.9571  0.6477  0.0940  0.1366  0.1249  0.0934  0.1310  0.0926
                0.1113  0.0922  0.0585
 10 Ag         -0.0003  0.0002 -0.0024  0.0296  0.0000  0.0000  0.0000  0.0000  0.0000  0.0000
                0.0008  0.0007  0.0005  0.0383  0.0574  0.0574  0.0383  0.0576  0.0383  0.3183
                0.6043  0.0280  0.5466  0.8190  0.8186  0.5450  0.8213  0.5469  0.6393  0.9562
                0.9552  0.6285  0.9589  0.6473  0.0864  0.1462  0.1427  0.1024  0.1412  0.0865
                0.0861  0.0606  0.0660

 Gross Charges per Atom (Z minus electrons)
 ==========================================
             0.2759   -0.2891    0.1186    0.0627   -0.0728    0.0603   -0.0844   -0.0689    0.0659   -0.0682
 Net Total: -0.00000000


 Atom-Atom Population Matrix (off-diagonal elements not doubled)
 ===============================================================

     1 :     3.1015
     2 :     0.4811    5.8230
     3 :     0.1442   -0.0112   10.2699
     4 :     0.0023   -0.0011    0.0766   10.4556
     5 :     0.0021   -0.0026    0.1714    0.1222   10.6252
     6 :    -0.0015    0.0001    0.0824   -0.0538    0.1234   10.4557
     7 :    -0.0004    0.0001   -0.0295    0.1131    0.0946    0.1097   10.6327
     8 :    -0.0041    0.0001    0.1132   -0.0332   -0.0121    0.1873   -0.0190   10.6129
     9 :     0.0000    0.0001   -0.0437    0.0693   -0.0389    0.0703    0.2014    0.1039   10.4628
    10 :    -0.0011   -0.0004    0.1081    0.1862   -0.0126   -0.0339   -0.0183    0.1199    0.1089   10.6114



 =================================================
 H I R S H F E L D   C H A R G E   A N A L Y S I S
 =================================================
  
 For each fragment: the (numerical) integral of rho(scf) * rho(fragment)/rho(sum-of-fragments)
 (nuclear charges are included, electrons are counted negative)

 The fragments and their ordering are defined in the early G E O M E T R Y output section.
 If you use single-atom fragments, this usually implies that all atoms of the same
[...]
       2.210  0.00    70 A         22.43%     2 S               1.356  0.00     3 Ag
                                   21.95%     2 S               1.356  0.00     4 Ag
                                   19.59%     2 S               1.356  0.00     9 Ag
                                   18.79%     2 S               1.356  0.00     6 Ag
                                   12.73%     2 S               1.356  0.00    10 Ag
                                   10.18%     2 S               1.356  0.00     7 Ag
                                   -6.60%     1 S              -4.550  1.00     6 Ag
                                    4.77%     2 P:z             4.695  0.00     1 C
                                   -4.37%     1 S              -4.550  1.00     3 Ag
                                   -4.22%     1 S              -4.550  1.00     4 Ag
                                   -2.27%     1 S              -4.550  1.00    10 Ag
                                   -1.71%     1 S              -4.550  1.00     9 Ag
                                    1.20%     1 P:x            -5.426  0.67     1 C
       2.283  0.00    71 A         19.74%     2 S               1.356  0.00     5 Ag
                                   10.69%     1 P:z             0.354  0.00     6 Ag
                                    9.89%     1 P:z             0.354  0.00     4 Ag
                                    8.33%     1 S              -4.550  1.00     3 Ag
                                    7.91%     2 S               1.356  0.00    10 Ag
                                    7.03%     2 S               1.356  0.00     9 Ag
                                    6.70%     2 S               1.356  0.00     4 Ag
                                   -4.63%     1 S              -4.550  1.00     5 Ag
                                    3.37%     1 P:z             0.354  0.00     9 Ag
                                   -2.60%     2 P:z             4.695  0.00     1 C
                                    2.38%     2 D:xz            8.000  0.00     4 Ag
                                    2.27%     1 P:x             0.354  0.00    10 Ag
                                    2.26%     1 P:z             0.354  0.00     3 Ag
                                   -2.11%     1 S              -4.550  1.00     8 Ag
                                    1.78%     2 S               1.356  0.00     6 Ag
                                    1.75%     1 P:y             0.354  0.00    10 Ag
                                    1.71%     2 D:xz            8.000  0.00     6 Ag
                                   -1.70%     2 S              11.654  0.00     1 C
                                    1.40%     1 P:z             0.354  0.00     8 Ag
                                    1.27%     1 P:z             0.354  0.00     5 Ag
                                    1.26%     1 P:x             0.354  0.00     6 Ag
                                   -1.22%     1 S              -4.550  1.00     7 Ag
                                    1.19%     2 P:y             4.695  0.00     1 C



 ==================
 AOResponse routine  ***  Version 09/07 (scalar- or non-relativistic)  ***
 ==================
  
 *** number of frequencies =           1
 *** frequency #           1 =  0.000000000000000E+000  Hartree, 
  0.000000000000000E+000  eV
 
 No. of frequency:           1

    Dipmat_x            
    using first order VWN potential
 
    NOTE: We will NOT use the GGA kernel (input option ALDA was set)
 
 CRIT   1.00000000000000     
 iter.  1 V(1) measure  0.4443165203233E+04
 *** convergence criterion : .4443165E-02
 CRIT   226.108951203788     
 iter.  2 V(1) measure  0.4029443993643E+04
        2        delta  0.4137212095900E+03
 CRIT   97.3634763725079     
 iter.  3 V(1) measure  0.4019105413488E+04
        3        delta  0.1033858015474E+02
 CRIT   28.7849524021543     
 iter.  4 V(1) measure  0.4013371678160E+04
        4        delta  0.5733735328136E+01
 CRIT   12.3604584331779     
 iter.  5 V(1) measure  0.4008943280169E+04
        5        delta  0.4428397991395E+01
 CRIT   2.87325313238913     
 iter.  6 V(1) measure  0.4008057276478E+04
        6        delta  0.8860036904653E+00
 CRIT   2.08661732790113     
 iter.  7 V(1) measure  0.4007742821960E+04
        7        delta  0.3144545178443E+00
 CRIT  0.880317145774390     
 iter.  8 V(1) measure  0.4007837013624E+04
        8        delta  0.9419166388170E-01
 CRIT  0.235152652311460     
 iter.  9 V(1) measure  0.4007882505909E+04
        9        delta  0.4549228503856E-01
 CRIT  0.127937655714408     
 iter. 10 V(1) measure  0.4007917873551E+04
       10        delta  0.3536764170985E-01
 CRIT  3.014272846430610E-002
 iter. 11 V(1) measure  0.4007929610544E+04
       11        delta  0.1173699259198E-01
 CRIT  1.100602866565026E-002
 iter. 12 V(1) measure  0.4007932915758E+04
       12        delta  0.3305213987915E-02
 *** convergence reached
 ----------------------------------------------
Hirshfeld fragment: 1 C
pol_frag_loc x              4.09500
pol_frag_loc y             -0.55275
pol_frag_loc z             -1.02931
charge_frag                -0.34546
pol_frag_non-loc x         -0.20013
pol_frag_non-loc y          0.65461
pol_frag_non-loc z         -2.06033
 ----------------------------------------------
Hirshfeld fragment: 1 O
pol_frag_loc x              2.64345
pol_frag_loc y              0.05564
pol_frag_loc z              0.36715
charge_frag                 1.98871
pol_frag_non-loc x          3.53651
pol_frag_non-loc y         -2.29379
pol_frag_non-loc z         15.14231
 ----------------------------------------------
Hirshfeld fragment: 1 Ag
pol_frag_loc x              8.43244
pol_frag_loc y              0.25958
pol_frag_loc z             -0.90976
charge_frag                -0.46568
pol_frag_non-loc x          0.13289
pol_frag_non-loc y          0.34416
pol_frag_non-loc z         -0.88863
 ----------------------------------------------
Hirshfeld fragment: 2 Ag
pol_frag_loc x             25.90610
pol_frag_loc y              4.08969
pol_frag_loc z             -0.52115
charge_frag                11.57865
pol_frag_non-loc x         38.27228
pol_frag_non-loc y         17.21373
pol_frag_non-loc z        -19.48012
 ----------------------------------------------
Hirshfeld fragment: 3 Ag
pol_frag_loc x             14.96841
pol_frag_loc y             -0.17183
pol_frag_loc z             -0.52054
charge_frag                -0.29279
pol_frag_non-loc x          0.08354
pol_frag_non-loc y         -1.28956
pol_frag_non-loc z         -0.32133
 ----------------------------------------------
Hirshfeld fragment: 4 Ag
pol_frag_loc x             26.17160
pol_frag_loc y             -4.15363
pol_frag_loc z             -0.08543
charge_frag               -11.68581
pol_frag_non-loc x         45.29418
pol_frag_non-loc y        -17.37351
pol_frag_non-loc z         19.66193
 ----------------------------------------------
Hirshfeld fragment: 5 Ag
pol_frag_loc x             15.98830
pol_frag_loc y             -0.02908
pol_frag_loc z              0.27936
charge_frag                -0.11659
pol_frag_non-loc x          0.03325
pol_frag_non-loc y         -0.51350
pol_frag_non-loc z          0.52028
 ----------------------------------------------
Hirshfeld fragment: 6 Ag
pol_frag_loc x             21.27849
pol_frag_loc y              6.67935
pol_frag_loc z             -0.22738
charge_frag                -9.67253
pol_frag_non-loc x         29.64931
pol_frag_non-loc y         35.37025
pol_frag_non-loc z         16.27384
 ----------------------------------------------
Hirshfeld fragment: 7 Ag
pol_frag_loc x             10.93386
pol_frag_loc y             -0.04716
pol_frag_loc z              0.41908
charge_frag                -0.24329
pol_frag_non-loc x          0.07660
pol_frag_non-loc y          0.16843
pol_frag_non-loc z          1.29461
 ----------------------------------------------
Hirshfeld fragment: 8 Ag
pol_frag_loc x             20.72375
pol_frag_loc y             -6.33928
pol_frag_loc z             -0.43928
charge_frag                 9.25400
pol_frag_non-loc x         22.66321
pol_frag_non-loc y        -33.73775
pol_frag_non-loc z        -16.22083
 ----------------------------------------------
pol_total x        290.68281
pol_total y         -1.66609
pol_total z         11.25318

    Dipmat_y            
    using first order VWN potential
 
    NOTE: We will NOT use the GGA kernel (input option ALDA was set)
 
 CRIT   1.00000000000000     
 iter.  1 V(1) measure  0.1056073798652E+05
 *** convergence criterion : .1056074E-01
 CRIT   277.610419259940     
 iter.  2 V(1) measure  0.9664319812251E+04
        2        delta  0.8964181742669E+03
 CRIT   86.8390649415369     
 iter.  3 V(1) measure  0.9621105344975E+04
        3        delta  0.4321446727641E+02
 CRIT   42.2936909450347     
 iter.  4 V(1) measure  0.9616525822735E+04
        4        delta  0.4579522239015E+01
 CRIT   19.9449656316819     
 iter.  5 V(1) measure  0.9605390996865E+04
        5        delta  0.1113482587045E+02
 CRIT   4.09313515111232     
 iter.  6 V(1) measure  0.9604171586435E+04
        6        delta  0.1219410429560E+01
 CRIT   2.29131189974030     
 iter.  7 V(1) measure  0.9604741991019E+04
        7        delta  0.5704045836574E+00
 CRIT  0.852809968218913     
 iter.  8 V(1) measure  0.9604939269657E+04
        8        delta  0.1972786378119E+00
 CRIT  0.248181449514056     
 iter.  9 V(1) measure  0.9604932456422E+04
        9        delta  0.6813234449510E-02
 *** convergence reached
 ----------------------------------------------
Hirshfeld fragment: 1 C
pol_frag_loc x              0.84906
pol_frag_loc y              5.87288
pol_frag_loc z             -0.39994
charge_frag                -2.83512
pol_frag_non-loc x         -1.64247
pol_frag_non-loc y          5.37233
pol_frag_non-loc z        -16.90893
 ----------------------------------------------
Hirshfeld fragment: 1 O
pol_frag_loc x             -0.29164
pol_frag_loc y              2.17840
pol_frag_loc z             -0.51631
charge_frag                -0.69377
pol_frag_non-loc x         -1.23372
pol_frag_non-loc y          0.80020
pol_frag_non-loc z         -5.28244
 ----------------------------------------------
Hirshfeld fragment: 1 Ag
pol_frag_loc x              0.27592
pol_frag_loc y              5.93517
pol_frag_loc z             -0.61500
charge_frag                -1.76243
pol_frag_non-loc x          0.50294
pol_frag_non-loc y          1.30253
pol_frag_non-loc z         -3.36316
 ----------------------------------------------
Hirshfeld fragment: 2 Ag
pol_frag_loc x              6.08060
pol_frag_loc y             10.03882
pol_frag_loc z              0.16057
charge_frag                 4.09591
pol_frag_non-loc x         13.53869
pol_frag_non-loc y          6.08930
pol_frag_non-loc z         -6.89103
 ----------------------------------------------
Hirshfeld fragment: 3 Ag
pol_frag_loc x             -0.09856
pol_frag_loc y             22.92321
pol_frag_loc z              9.93899
charge_frag                13.24887
pol_frag_non-loc x         -3.78023
pol_frag_non-loc y         58.35367
pol_frag_non-loc z         14.54034
 ----------------------------------------------
Hirshfeld fragment: 4 Ag
pol_frag_loc x             -6.02231
pol_frag_loc y             10.00487
pol_frag_loc z              0.11309
charge_frag                 4.07303
pol_frag_non-loc x        -15.78707
pol_frag_non-loc y          6.05545
pol_frag_non-loc z         -6.85307
 ----------------------------------------------
Hirshfeld fragment: 5 Ag
pol_frag_loc x              0.00854
pol_frag_loc y             23.94606
pol_frag_loc z            -11.02646
charge_frag                13.59034
pol_frag_non-loc x         -3.87628
pol_frag_non-loc y         59.85687
pol_frag_non-loc z        -60.64693
 ----------------------------------------------
Hirshfeld fragment: 6 Ag
pol_frag_loc x              9.80223
pol_frag_loc y             22.57393
pol_frag_loc z             -0.07465
charge_frag               -12.86860
pol_frag_non-loc x         39.44626
pol_frag_non-loc y         47.05756
pol_frag_non-loc z         21.65117
 ----------------------------------------------
Hirshfeld fragment: 7 Ag
pol_frag_loc x             -0.09575
pol_frag_loc y              9.58840
pol_frag_loc z              6.22397
charge_frag                -4.17784
pol_frag_non-loc x          1.31531
pol_frag_non-loc y          2.89230
pol_frag_non-loc z         22.23092
 ----------------------------------------------
Hirshfeld fragment: 8 Ag
pol_frag_loc x             -9.62349
pol_frag_loc y             22.44021
pol_frag_loc z              0.64538
charge_frag               -12.67085
pol_frag_non-loc x        -31.03112
pol_frag_non-loc y         46.19469
pol_frag_non-loc z         22.21002
 ----------------------------------------------
pol_total x         -1.66321
pol_total y        369.47703
pol_total z        -14.86425

    Dipmat_z            
    using first order VWN potential
 
    NOTE: We will NOT use the GGA kernel (input option ALDA was set)
 
 CRIT   1.00000000000000     
 iter.  1 V(1) measure  0.6678586985211E+04
 *** convergence criterion : .6678587E-02
 CRIT   258.287389304216     
 iter.  2 V(1) measure  0.6120800301345E+04
        2        delta  0.5577866838658E+03
 CRIT   96.0591604587575     
 iter.  3 V(1) measure  0.6053650985319E+04
        3        delta  0.6714931602565E+02
 CRIT   39.9096724088174     
 iter.  4 V(1) measure  0.6048720690259E+04
        4        delta  0.4930295059677E+01
 CRIT   18.6498742769648     
 iter.  5 V(1) measure  0.6046295546299E+04
        5        delta  0.2425143960040E+01
 CRIT   7.35767921344614     
 iter.  6 V(1) measure  0.6045013688648E+04
        6        delta  0.1281857650923E+01
 CRIT   3.40888903810528     
 iter.  7 V(1) measure  0.6046120365725E+04
        7        delta  0.1106677076192E+01
 CRIT   1.43648118454152     
 iter.  8 V(1) measure  0.6046717967039E+04
        8        delta  0.5976013141753E+00
 CRIT  0.423261999834043     
 iter.  9 V(1) measure  0.6046857309713E+04
        9        delta  0.1393426740196E+00
 CRIT  0.168586258448297     
 iter. 10 V(1) measure  0.6046891115671E+04
       10        delta  0.3380595853378E-01
 CRIT  7.919677160791697E-002
 iter. 11 V(1) measure  0.6046908768814E+04
       11        delta  0.1765314266595E-01
 CRIT  2.034776049904640E-002
 iter. 12 V(1) measure  0.6046911808645E+04
       12        delta  0.3039831122805E-02
 *** convergence reached
 ----------------------------------------------
Hirshfeld fragment: 1 C
pol_frag_loc x             -4.06969
pol_frag_loc y             -4.11191
pol_frag_loc z              2.66769
charge_frag                 5.66215
pol_frag_non-loc x          3.28025
pol_frag_non-loc y        -10.72933
pol_frag_non-loc z         33.76960
 ----------------------------------------------
Hirshfeld fragment: 1 O
pol_frag_loc x              1.14140
pol_frag_loc y              0.43626
pol_frag_loc z              4.56534
charge_frag                 6.85975
pol_frag_non-loc x         12.19863
pol_frag_non-loc y         -7.91206
pol_frag_non-loc z         52.23095
 ----------------------------------------------
Hirshfeld fragment: 1 Ag
pol_frag_loc x             -1.38292
pol_frag_loc y              1.09490
pol_frag_loc z              8.49758
charge_frag                 4.93489
pol_frag_non-loc x         -1.40826
pol_frag_non-loc y         -3.64715
pol_frag_non-loc z          9.41700
 ----------------------------------------------
Hirshfeld fragment: 2 Ag
pol_frag_loc x             -1.46569
pol_frag_loc y             -0.06876
pol_frag_loc z              9.36795
charge_frag                -0.77626
pol_frag_non-loc x         -2.56587
pol_frag_non-loc y         -1.15405
pol_frag_non-loc z          1.30599
 ----------------------------------------------
Hirshfeld fragment: 3 Ag
pol_frag_loc x             -0.66149
pol_frag_loc y              5.69733
pol_frag_loc z             18.37502
charge_frag                 8.16132
pol_frag_non-loc x         -2.32863
pol_frag_non-loc y         35.94595
pol_frag_non-loc z          8.95687
 ----------------------------------------------
Hirshfeld fragment: 4 Ag
pol_frag_loc x              1.02664
pol_frag_loc y             -0.29264
pol_frag_loc z             10.44474
charge_frag                -0.53906
pol_frag_non-loc x          2.08939
pol_frag_non-loc y         -0.80143
pol_frag_non-loc z          0.90699
 ----------------------------------------------
Hirshfeld fragment: 5 Ag
pol_frag_loc x              0.34049
pol_frag_loc y             -7.29184
pol_frag_loc z             22.94783
charge_frag                -9.92523
pol_frag_non-loc x          2.83091
pol_frag_non-loc y        -43.71436
pol_frag_non-loc z         44.29136
 ----------------------------------------------
Hirshfeld fragment: 6 Ag
pol_frag_loc x              0.74273
pol_frag_loc y              0.88414
pol_frag_loc z             14.57051
charge_frag                -0.59564
pol_frag_non-loc x          1.82583
pol_frag_non-loc y          2.17812
pol_frag_non-loc z          1.00215
 ----------------------------------------------
Hirshfeld fragment: 7 Ag
pol_frag_loc x              0.32978
pol_frag_loc y              4.11147
pol_frag_loc z             28.29768
charge_frag               -12.52173
pol_frag_non-loc x          3.94221
pol_frag_non-loc y          8.66873
pol_frag_non-loc z         66.62995
 ----------------------------------------------
Hirshfeld fragment: 8 Ag
pol_frag_loc x             -1.53023
pol_frag_loc y              1.24649
pol_frag_loc z             14.23100
charge_frag                -1.26152
pol_frag_non-loc x         -3.08949
pol_frag_non-loc y          4.59919
pol_frag_non-loc z          2.21125
 ----------------------------------------------
pol_total x         11.24562
pol_total y        -14.86047
pol_total z        354.68525
 ------------------------------------------
 Convergence acceleration: T
 POLARIZABILITY                           
 Frequency  =   0.000000000     Hartrees
 Wavelength = infinite nm
 Wavenumber =   0.000000000     cm^{-1}
 Energy     =   0.000000000     eV
 ------------------------------------------
 Polarizability tensor:
                X                   Y                   Z
            290.68832            -1.66202            11.25985
             -1.65670           369.47950           -14.86051
             11.25356           -14.85731           354.69218

 Isotropic        POLARIZABILITY   =      338.29     atomic units



 =======================================================================
 Electrostatic potential at the Nuclei due to electrons and other nuclei
 =======================================================================
  
         Atom                  Potential
         ----                  ---------
     1)   C                  14.63899095
     2)   O                  22.24063406
     3)   Ag                274.24042862
     4)   Ag                274.26403531
     5)   Ag                274.26140837
     6)   Ag                274.26354432
     7)   Ag                274.26466043
     8)   Ag                274.26037173
     9)   Ag                274.26500170
    10)   Ag                274.26019600
 Mulliken charges used for AMS results%charges...


    =====================
     CALCULATION RESULTS
    =====================

Energy (hartree)            -1.07567411


--------------
Atomic charges
--------------
  Index   Atom    Charge
      1      C    0.2759
      2      O   -0.2891
      3     Ag    0.1186
      4     Ag    0.0627
      5     Ag   -0.0728
      6     Ag    0.0603
      7     Ag   -0.0844
      8     Ag   -0.0689
      9     Ag    0.0659
     10     Ag   -0.0682


Dipole moment vector    (Debye):    -0.07954639   -0.31661688    0.27285281
              magnitude (Debye):     0.42546743


AMS application finished. Exiting.
NORMAL TERMINATION
     Total cpu time:      10.79
  Total system time:       1.23
 Total elapsed time:      17.47
