

 Parallel Execution: Process Information
 ==============================================================================
 Rank   Node Name                              NodeID   MyNodeRank  NodeMaster
    0   p-sc-2005                                 0          0          0
    1   p-sc-2005                                 0          1         -1
    2   p-sc-2005                                 0          2         -1
    3   p-sc-2005                                 0          3         -1
    4   p-sc-2005                                 0          4         -1
    5   p-sc-2005                                 0          5         -1
    6   p-sc-2005                                 0          6         -1
    7   p-sc-2005                                 0          7         -1
    8   p-sc-2005                                 0          8         -1
    9   p-sc-2005                                 0          9         -1
   10   p-sc-2005                                 0         10         -1
   11   p-sc-2005                                 0         11         -1
   12   p-sc-2005                                 1          0          1
   13   p-sc-2005                                 1          1         -1
   14   p-sc-2005                                 1          2         -1
   15   p-sc-2005                                 1          3         -1
   16   p-sc-2005                                 1          4         -1
   17   p-sc-2005                                 1          5         -1
   18   p-sc-2005                                 1          6         -1
   19   p-sc-2005                                 1          7         -1
 ==============================================================================


May use up to 45383MB of RAM as shared memory on node 0
May use up to 46121MB of RAM as shared memory on node 1

 *******************************************************************************
 *                                                                             *
 *  --------------------------------                                           *
 *   Amsterdam Modeling Suite (AMS)              2022.101                      *
 *  --------------------------------                                           *
 *                                               r102085 2022-02-25            *
 *                                                                             *
 *                                                                             *
 *                              =================                              *
 *                              |               |                              *
 *                              |     A M S     |                              *
 *                              |               |                              *
 *                              =================                              *
 *                                                                             *
 *                                                                             *
 *   Online information and documentation:  https://www.scm.com/support/       *
 *   E-mail:  support@scm.com   info@scm.com                                   *
 *                                                                             *
 *   Scientific publications using AMS results must be properly referenced     *
 *   See the User Manuals (or the web site) for recommended citations          *
 *   The terms and conditions of the End User License Agreement apply to       *
 *   the use of AMS, https://www.scm.com/license-terms/                        *
 *                                                                             *
 ***********************  x86_64_linux_intel / openmpi  ************************
 
 Licensed to: Dr. Adri van Duin / Site license Penn State / University Park / PA / USA 2022-08-02 11:39:07
 SCM User ID: u20919
  
 AMS 2022.101  RunTime: Apr23-2023 01:05:58  ShM Nodes: 2  Procs: 20

 AMS jobname: ams
 AMS jobid  : 212502033

 Start   directory: /scratch/ijc5167/scratch_adf/mode145.64-moszz/
 Results directory: /scratch/ijc5167/scratch_adf/mode145.64-moszz/ams.results/
 Scratch directory: /scratch/ijc5167/scratch_adf/mode145.64-moszz/amstmp_ams_kid0.212502033/


 Communication costs MPI_COMM_WORLD:      3.055 usec per message,   0.0185 usec per 8-byte item
 Communication costs for intra-node:      2.673 usec per message,   0.0216 usec per 8-byte item

 RNG seed: 742784494 1409859013 644236404 1492769130 -1479903036 680506480 -466498093 2083310899



                     *************************************************************************
                     *  ADF 2022.101  RunTime: Apr23-2023 01:05:58  ShM Nodes: 2  Procs: 20  *
                     *************************************************************************
  
       ****************************
       * SINGLE POINT CALCULATION *
       ****************************
 
--------
Geometry
--------
Formula: CAg8O
Atoms
  Index Symbol   x (angstrom)   y (angstrom)   z (angstrom)
      1      C     0.45024723    -1.19529361     4.04842339
      2      O     1.09563917    -0.81105610     4.91720227
      3     Ag     0.00005500    -0.58894775     1.90012242
      4     Ag     1.90013473     0.58891952    -0.00002109
      5     Ag     0.00003161     2.13287349     1.47113723
      6     Ag    -1.90010743     0.58889777     0.00004812
      7     Ag    -0.00002198     2.13290390    -1.47107827
      8     Ag    -1.47107852    -2.13291659     0.00001218
      9     Ag    -0.01567443    -0.56412529    -1.92550756
     10     Ag     1.44697671    -2.12704677    -0.03732934
 
Total System Charge             0.00000
 
 
----------------
ADF Engine Input
----------------
 
 Relativity
 Level Scalar
 End
 AORESPONSE
 ALDA True
 HIRSHPOL True
 el_dipole_el_dipole
 end
 basis
 Type TZP
 core Large
 end
 symmetry nosym
 numericalquality Normal
 xc
 GGA Becke88 Perdew86
 DISPERSION Grimme3 BJDAMP
 end
 

 Title: *** (NO TITLE) ***

 *** adf ***



 ===========================
 A T T A C H E D   F I L E S
 ===========================
  



 ===============================
 M O D E L   P A R A M E T E R S
 ===============================
  
 DENSITY FUNCTIONAL POTENTIAL (scf)
    LDA:                               VWN                                      
    Gradient Corrections:              Becke88 Perdew86                        == Not Default ==

 SPIN  (restricted / unrestr.)
    Molecule:                          Restricted                               
    Fragments:                         Restricted                               

 OTHER ASPECTS
    Relativistic Corrections:          scalar (ZORA,MAPA)                       

    Nuclear Charge Density Model:      Point Charge Nuclei                      
    Core Treatment:                    Frozen Orbital(s)                        

    Hyperfine or Zeeman Interaction:   ---                                      

 Settings for Grimme D3 dispersion correction

      damping                        BJ
      s6                          1.000
      s8                          3.282
      a1                          0.395
      a2                          4.852

 Other (technical) parameters

      alpha                      14.000
      version                         4
 


 Fragment File(s)
 ----------------
 C:
         file : /scratch/ijc5167/scratch_adf/mode145.64-moszz/ams.results/t21.12976890.C
         jobid: 0
         title: Carbon (TZP, 1s frozen)
 O:
         file : /scratch/ijc5167/scratch_adf/mode145.64-moszz/ams.results/t21.5B67203B.O
         jobid: 0
         title: Oxygen (TZP, 1s frozen)
 Ag:
         file : /scratch/ijc5167/scratch_adf/mode145.64-moszz/ams.results/t21.4039B022.Ag
         jobid: 0
         title: Silver (TZP, 4p frozen)



 ===============
 G E O M E T R Y  ***  3D  Molecule  ***
 ===============
  

 ATOMS
 =====                            X Y Z                    CHARGE
                                (Angstrom)             Nucl     +Core       At.Mass
                       --------------------------    ----------------       -------
    1  C               0.4502   -1.1953    4.0484      6.00      4.00       12.0000
    2  O               1.0956   -0.8111    4.9172      8.00      6.00       15.9949
    3  Ag              0.0001   -0.5889    1.9001     47.00     11.00      106.9051
    4  Ag              1.9001    0.5889   -0.0000     47.00     11.00      106.9051
    5  Ag              0.0000    2.1329    1.4711     47.00     11.00      106.9051
    6  Ag             -1.9001    0.5889    0.0000     47.00     11.00      106.9051
    7  Ag             -0.0000    2.1329   -1.4711     47.00     11.00      106.9051
    8  Ag             -1.4711   -2.1329    0.0000     47.00     11.00      106.9051
    9  Ag             -0.0157   -0.5641   -1.9255     47.00     11.00      106.9051
   10  Ag              1.4470   -2.1270   -0.0373     47.00     11.00      106.9051


 FRAGMENTS
 =========                                     Atoms in this Fragment     Cart. coord.s (Angstrom)
                                               -------------------------------------------------------
    1  C                                                 1  C            0.4502   -1.1953    4.0484
    2  O                                                 2  O            1.0956   -0.8111    4.9172
    3  Ag                                                3  Ag           0.0001   -0.5889    1.9001
    4  Ag                                                4  Ag           1.9001    0.5889   -0.0000
    5  Ag                                                5  Ag           0.0000    2.1329    1.4711
    6  Ag                                                6  Ag          -1.9001    0.5889    0.0000
    7  Ag                                                7  Ag          -0.0000    2.1329   -1.4711
    8  Ag                                                8  Ag          -1.4711   -2.1329    0.0000
    9  Ag                                                9  Ag          -0.0157   -0.5641   -1.9255
   10  Ag                                               10  Ag           1.4470   -2.1270   -0.0373


 Interatomic Distance Matrix (Angstrom)
 --------------------------------------

   1)     0.000
   2)     1.148   0.000
   3)     2.277   3.218   0.000
   4)     4.656   5.176   2.934   0.000
   5)     4.233   4.663   2.755   2.856   0.000
   6)     5.010   5.926   2.934   3.800   2.856   0.000
   7)     6.461   7.119   4.333   2.856   2.942   2.856   0.000
   8)     4.578   5.702   2.856   4.333   4.746   2.755   4.746   0.000
   9)     6.025   6.937   3.826   2.951   4.337   2.931   2.735   2.879   0.000
  10)     4.308   5.138   2.866   2.754   4.745   4.311   4.722   2.918   2.854   0.000

 Min. Distance =    1.1485
 Max. Distance =    7.1188



 =====================================
 S Y M M E T R Y ,   E L E C T R O N S
 =====================================
  
 Symmetry: NOSYM

 Irreducible Representations, including subspecies
 -------------------------------------------------
 A


 Configuration of Valence Electrons
 ==================================
 ( determined in the SCF procedure )

 Total:   98

 Net Charge: 0 (Nuclei minus Electrons)

 Aufbau principle for MO occupations will be applied through SCF cycle no.     150
 Thereafter, the program will assign electrons to MOs that are spatially
 similar to the occupied MOs in a "reference" cycle ("KeepOrbitals").
 The reference cycle is always the PREVIOUS cycle: it will evolve with
 the SCF procedure.
1
 ***************************************************************************************************



                                      ****************************************
                                      *  B U I L D : (Fragments, Functions)  *
                                      ****************************************
  



 =======
 S F O s  ***  (Symmetrized Fragment Orbitals)  ***
 =======
  
 SFOs are linear combinations of (valence) Fragment Orbitals (FOs), such that the SFOs transform as the
 irreducible representations of the (molecular) symmetry group. Each SFO is therefore characterized by
 an irrep of the molecule and by a few (or only one) generating FOs.
 The SFOs constitute a symmetry-adapted basis for the Fock matrix. The MO eigenvector coefficients in
 this basis provide a direct interpretation of the MOs in terms of Frontier Orbital Theory.

 The SFOs are combined with auxiliary Core Functions (CFs) to ensure orthogonalization on the (frozen)
 Core Orbitals (COs). The Core-orthogonalized SFOs (CSFOs) constitute the true Fock basis.

 The FOs, and hence also the (C)SFOs are combinations of the elementary basis functions (BAS). The basis
 functions that participate in the description of the SFOs depend on the irrep. The indices of the
 involved functions are printed below for each irrep.
 (The complete list of primitive basis functions is printed in another section)

 Total nr. of (C)SFOs (summation over all irreps) :   202

 NOTE: a (C)SFO that is defined as a combination of more than one FO is usually NOT normalized.



                                       === A ===
 Nr. of SFOs :  202
 Cartesian basis functions that participate in this irrep (total number =   382) :
      1    20    39    40    41    42    43    46    49    44
     47    50    45    48    51    52    53    54    55    56
     57    82    83    84    85    86    89    92    87    90
     93    88    91    94    95    96    97    98    99   100
    125   126   127   128   129   132   135   130   133   136
    131   134   137   138   139   140   141   142   143   168
    169   170   171   172   175   178   173   176   179   174
    177   180   181   182   183   184   185   186   211   212
    213   214   215   218   221   216   219   222   217   220
    223   224   225   226   227   228   229   254   255   256
    257   258   261   264   259   262   265   260   263   266
    267   268   269   270   271   272   297   298   299   300
    301   304   307   302   305   308   303   306   309   310
    311   312   313   314   315   340   341   342   343   344
    347   350   345   348   351   346   349   352   353   354
    355   356   357   358     2     3     4     5     8    11
      6     9    12     7    10    13    14    15    16    17
     18    19    21    22    23    24    27    30    25    28
     31    26    29    32    33    34    35    36    37    38
     58    59    60    79    80    81    61    67    73    62
     68    74    63    69    75    64    70    76    65    71
     77    66    72    78   101   102   103   122   123   124
    104   110   116   105   111   117   106   112   118   107
    113   119   108   114   120   109   115   121   144   145
    146   165   166   167   147   153   159   148   154   160
    149   155   161   150   156   162   151   157   163   152
    158   164   187   188   189   208   209   210   190   196
    202   191   197   203   192   198   204   193   199   205
    194   200   206   195   201   207   230   231   232   251
    252   253   233   239   245   234   240   246   235   241
    247   236   242   248   237   243   249   238   244   250
    273   274   275   294   295   296   276   282   288   277
    283   289   278   284   290   279   285   291   280   286
    292   281   287   293   316   317   318   337   338   339
    319   325   331   320   326   332   321   327   333   322
    328   334   323   329   335   324   330   336   359   360
    361   380   381   382   362   368   374   363   369   375
    364   370   376   365   371   377   366   372   378   367
    373   379

    SFO  (index         Fragment          Generating    Expansion in Fragment Orbitals
  indx  incl.CFs)   Occup   Orb.Energy   FragmentType  Coeff.   Orbital     on Fragment
 --------------------------------------------------------------------------------------
     1     155      2.000      -0.511 au  C             1.00      1 S               1
                        (     -13.915 eV)
     2     156       --         0.428 au  C             1.00      2 S               1
                        (      11.654 eV)
     3     157       --         9.927 au  C             1.00      3 S               1
                        (     270.139 eV)
     4     158      0.667      -0.199 au  C             1.00      1 P:x             1
                        (      -5.426 eV)
     5     159       --         0.173 au  C             1.00      2 P:x             1
                        (       4.695 eV)
     6     160       --         2.022 au  C             1.00      3 P:x             1
                        (      55.030 eV)
     7     161      0.667      -0.199 au  C             1.00      1 P:y             1
                        (      -5.426 eV)
     8     162       --         0.173 au  C             1.00      2 P:y             1
                        (       4.695 eV)
     9     163       --         2.022 au  C             1.00      3 P:y             1
                        (      55.030 eV)
    10     164      0.667      -0.199 au  C             1.00      1 P:z             1
                        (      -5.426 eV)
    11     165       --         0.173 au  C             1.00      2 P:z             1
                        (       4.695 eV)
    12     166       --         2.022 au  C             1.00      3 P:z             1
                        (      55.030 eV)
    13     167       --         1.231 au  C             1.00      1 D:z2            1
                        (      33.508 eV)
    14     168       --         1.231 au  C             1.00      1 D:x2-y2         1
                        (      33.508 eV)
    15     169       --         1.231 au  C             1.00      1 D:xy            1
                        (      33.508 eV)
    16     170       --         1.231 au  C             1.00      1 D:xz            1
                        (      33.508 eV)
    17     171       --         1.231 au  C             1.00      1 D:yz            1
                        (      33.508 eV)
    18     172      2.000      -0.887 au  O             1.00      1 S               2
                        (     -24.141 eV)
    19     173       --         0.898 au  O             1.00      2 S               2
                        (      24.443 eV)
    20     174       --        29.557 au  O             1.00      3 S               2
                        (     804.274 eV)
    21     175      1.333      -0.338 au  O             1.00      1 P:x             2
                        (      -9.204 eV)
    22     176       --         0.354 au  O             1.00      2 P:x             2
                        (       9.644 eV)
    23     177       --         3.829 au  O             1.00      3 P:x             2
                        (     104.202 eV)
    24     178      1.333      -0.338 au  O             1.00      1 P:y             2
                        (      -9.204 eV)
    25     179       --         0.354 au  O             1.00      2 P:y             2
                        (       9.644 eV)
    26     180       --         3.829 au  O             1.00      3 P:y             2
                        (     104.202 eV)
    27     181      1.333      -0.338 au  O             1.00      1 P:z             2
                        (      -9.204 eV)
    28     182       --         0.354 au  O             1.00      2 P:z             2
                        (       9.644 eV)
    29     183       --         3.829 au  O             1.00      3 P:z             2
                        (     104.202 eV)
    30     184       --         1.061 au  O             1.00      1 D:z2            2
                        (      28.861 eV)
    31     185       --         1.061 au  O             1.00      1 D:x2-y2         2
                        (      28.861 eV)
    32     186       --         1.061 au  O             1.00      1 D:xy            2
                        (      28.861 eV)
    33     187       --         1.061 au  O             1.00      1 D:xz            2
                        (      28.861 eV)
    34     188       --         1.061 au  O             1.00      1 D:yz            2
                        (      28.861 eV)
    35     189      1.000      -0.167 au  Ag            1.00      1 S               3
                        (      -4.550 eV)
    36     190       --         0.050 au  Ag            1.00      2 S               3
                        (       1.356 eV)
    37     191       --         0.590 au  Ag            1.00      3 S               3
                        (      16.061 eV)
    38     192       --         0.013 au  Ag            1.00      1 P:x             3
                        (       0.354 eV)
    39     193       --         0.013 au  Ag            1.00      1 P:y             3
                        (       0.354 eV)
    40     194       --         0.013 au  Ag            1.00      1 P:z             3
                        (       0.354 eV)
    41     195      2.000      -0.277 au  Ag            1.00      1 D:z2            3
                        (      -7.546 eV)
    42     196       --         0.294 au  Ag            1.00      2 D:z2            3
                        (       8.000 eV)
    43     197       --         2.230 au  Ag            1.00      3 D:z2            3
                        (      60.692 eV)
    44     198      2.000      -0.277 au  Ag            1.00      1 D:x2-y2         3
                        (      -7.546 eV)
    45     199       --         0.294 au  Ag            1.00      2 D:x2-y2         3
                        (       8.000 eV)
    46     200       --         2.230 au  Ag            1.00      3 D:x2-y2         3
                        (      60.692 eV)
    47     201      2.000      -0.277 au  Ag            1.00      1 D:xy            3
                        (      -7.546 eV)
    48     202       --         0.294 au  Ag            1.00      2 D:xy            3
                        (       8.000 eV)
    49     203       --         2.230 au  Ag            1.00      3 D:xy            3
                        (      60.692 eV)
    50     204      2.000      -0.277 au  Ag            1.00      1 D:xz            3
                        (      -7.546 eV)
    51     205       --         0.294 au  Ag            1.00      2 D:xz            3
                        (       8.000 eV)
    52     206       --         2.230 au  Ag            1.00      3 D:xz            3
                        (      60.692 eV)
    53     207      2.000      -0.277 au  Ag            1.00      1 D:yz            3
                        (      -7.546 eV)
    54     208       --         0.294 au  Ag            1.00      2 D:yz            3
                        (       8.000 eV)
    55     209       --         2.230 au  Ag            1.00      3 D:yz            3
                        (      60.692 eV)
    56     210      1.000      -0.167 au  Ag            1.00      1 S               4
                        (      -4.550 eV)
    57     211       --         0.050 au  Ag            1.00      2 S               4
                        (       1.356 eV)
    58     212       --         0.590 au  Ag            1.00      3 S               4
                        (      16.061 eV)
    59     213       --         0.013 au  Ag            1.00      1 P:x             4
                        (       0.354 eV)
    60     214       --         0.013 au  Ag            1.00      1 P:y             4
                        (       0.354 eV)
    61     215       --         0.013 au  Ag            1.00      1 P:z             4
                        (       0.354 eV)
    62     216      2.000      -0.277 au  Ag            1.00      1 D:z2            4
                        (      -7.546 eV)
    63     217       --         0.294 au  Ag            1.00      2 D:z2            4
                        (       8.000 eV)
    64     218       --         2.230 au  Ag            1.00      3 D:z2            4
                        (      60.692 eV)
    65     219      2.000      -0.277 au  Ag            1.00      1 D:x2-y2         4
                        (      -7.546 eV)
    66     220       --         0.294 au  Ag            1.00      2 D:x2-y2         4
                        (       8.000 eV)
    67     221       --         2.230 au  Ag            1.00      3 D:x2-y2         4
                        (      60.692 eV)
    68     222      2.000      -0.277 au  Ag            1.00      1 D:xy            4
                        (      -7.546 eV)
    69     223       --         0.294 au  Ag            1.00      2 D:xy            4
                        (       8.000 eV)
    70     224       --         2.230 au  Ag            1.00      3 D:xy            4
                        (      60.692 eV)
    71     225      2.000      -0.277 au  Ag            1.00      1 D:xz            4
                        (      -7.546 eV)
    72     226       --         0.294 au  Ag            1.00      2 D:xz            4
                        (       8.000 eV)
    73     227       --         2.230 au  Ag            1.00      3 D:xz            4
                        (      60.692 eV)
    74     228      2.000      -0.277 au  Ag            1.00      1 D:yz            4
                        (      -7.546 eV)
    75     229       --         0.294 au  Ag            1.00      2 D:yz            4
                        (       8.000 eV)
    76     230       --         2.230 au  Ag            1.00      3 D:yz            4
                        (      60.692 eV)
    77     231      1.000      -0.167 au  Ag            1.00      1 S               5
                        (      -4.550 eV)
    78     232       --         0.050 au  Ag            1.00      2 S               5
                        (       1.356 eV)
    79     233       --         0.590 au  Ag            1.00      3 S               5
                        (      16.061 eV)
    80     234       --         0.013 au  Ag            1.00      1 P:x             5
                        (       0.354 eV)
    81     235       --         0.013 au  Ag            1.00      1 P:y             5
                        (       0.354 eV)
    82     236       --         0.013 au  Ag            1.00      1 P:z             5
                        (       0.354 eV)
    83     237      2.000      -0.277 au  Ag            1.00      1 D:z2            5
                        (      -7.546 eV)
    84     238       --         0.294 au  Ag            1.00      2 D:z2            5
                        (       8.000 eV)
    85     239       --         2.230 au  Ag            1.00      3 D:z2            5
                        (      60.692 eV)
    86     240      2.000      -0.277 au  Ag            1.00      1 D:x2-y2         5
                        (      -7.546 eV)
    87     241       --         0.294 au  Ag            1.00      2 D:x2-y2         5
                        (       8.000 eV)
    88     242       --         2.230 au  Ag            1.00      3 D:x2-y2         5
                        (      60.692 eV)
    89     243      2.000      -0.277 au  Ag            1.00      1 D:xy            5
                        (      -7.546 eV)
    90     244       --         0.294 au  Ag            1.00      2 D:xy            5
                        (       8.000 eV)
    91     245       --         2.230 au  Ag            1.00      3 D:xy            5
                        (      60.692 eV)
    92     246      2.000      -0.277 au  Ag            1.00      1 D:xz            5
                        (      -7.546 eV)
    93     247       --         0.294 au  Ag            1.00      2 D:xz            5
                        (       8.000 eV)
    94     248       --         2.230 au  Ag            1.00      3 D:xz            5
                        (      60.692 eV)
    95     249      2.000      -0.277 au  Ag            1.00      1 D:yz            5
                        (      -7.546 eV)
    96     250       --         0.294 au  Ag            1.00      2 D:yz            5
                        (       8.000 eV)
    97     251       --         2.230 au  Ag            1.00      3 D:yz            5
                        (      60.692 eV)
    98     252      1.000      -0.167 au  Ag            1.00      1 S               6
                        (      -4.550 eV)
    99     253       --         0.050 au  Ag            1.00      2 S               6
                        (       1.356 eV)
   100     254       --         0.590 au  Ag            1.00      3 S               6
                        (      16.061 eV)
   101     255       --         0.013 au  Ag            1.00      1 P:x             6
                        (       0.354 eV)
   102     256       --         0.013 au  Ag            1.00      1 P:y             6
                        (       0.354 eV)
   103     257       --         0.013 au  Ag            1.00      1 P:z             6
                        (       0.354 eV)
   104     258      2.000      -0.277 au  Ag            1.00      1 D:z2            6
                        (      -7.546 eV)
   105     259       --         0.294 au  Ag            1.00      2 D:z2            6
                        (       8.000 eV)
   106     260       --         2.230 au  Ag            1.00      3 D:z2            6
                        (      60.692 eV)
   107     261      2.000      -0.277 au  Ag            1.00      1 D:x2-y2         6
                        (      -7.546 eV)
   108     262       --         0.294 au  Ag            1.00      2 D:x2-y2         6
                        (       8.000 eV)
   109     263       --         2.230 au  Ag            1.00      3 D:x2-y2         6
                        (      60.692 eV)
   110     264      2.000      -0.277 au  Ag            1.00      1 D:xy            6
                        (      -7.546 eV)
   111     265       --         0.294 au  Ag            1.00      2 D:xy            6
                        (       8.000 eV)
   112     266       --         2.230 au  Ag            1.00      3 D:xy            6
                        (      60.692 eV)
   113     267      2.000      -0.277 au  Ag            1.00      1 D:xz            6
                        (      -7.546 eV)
   114     268       --         0.294 au  Ag            1.00      2 D:xz            6
                        (       8.000 eV)
   115     269       --         2.230 au  Ag            1.00      3 D:xz            6
                        (      60.692 eV)
   116     270      2.000      -0.277 au  Ag            1.00      1 D:yz            6
                        (      -7.546 eV)
   117     271       --         0.294 au  Ag            1.00      2 D:yz            6
                        (       8.000 eV)
   118     272       --         2.230 au  Ag            1.00      3 D:yz            6
                        (      60.692 eV)
   119     273      1.000      -0.167 au  Ag            1.00      1 S               7
                        (      -4.550 eV)
   120     274       --         0.050 au  Ag            1.00      2 S               7
                        (       1.356 eV)
   121     275       --         0.590 au  Ag            1.00      3 S               7
                        (      16.061 eV)
   122     276       --         0.013 au  Ag            1.00      1 P:x             7
                        (       0.354 eV)
   123     277       --         0.013 au  Ag            1.00      1 P:y             7
                        (       0.354 eV)
   124     278       --         0.013 au  Ag            1.00      1 P:z             7
                        (       0.354 eV)
   125     279      2.000      -0.277 au  Ag            1.00      1 D:z2            7
                        (      -7.546 eV)
   126     280       --         0.294 au  Ag            1.00      2 D:z2            7
                        (       8.000 eV)
   127     281       --         2.230 au  Ag            1.00      3 D:z2            7
                        (      60.692 eV)
   128     282      2.000      -0.277 au  Ag            1.00      1 D:x2-y2         7
                        (      -7.546 eV)
   129     283       --         0.294 au  Ag            1.00      2 D:x2-y2         7
                        (       8.000 eV)
   130     284       --         2.230 au  Ag            1.00      3 D:x2-y2         7
                        (      60.692 eV)
   131     285      2.000      -0.277 au  Ag            1.00      1 D:xy            7
                        (      -7.546 eV)
   132     286       --         0.294 au  Ag            1.00      2 D:xy            7
                        (       8.000 eV)
   133     287       --         2.230 au  Ag            1.00      3 D:xy            7
                        (      60.692 eV)
   134     288      2.000      -0.277 au  Ag            1.00      1 D:xz            7
                        (      -7.546 eV)
   135     289       --         0.294 au  Ag            1.00      2 D:xz            7
                        (       8.000 eV)
   136     290       --         2.230 au  Ag            1.00      3 D:xz            7
                        (      60.692 eV)
   137     291      2.000      -0.277 au  Ag            1.00      1 D:yz            7
                        (      -7.546 eV)
   138     292       --         0.294 au  Ag            1.00      2 D:yz            7
                        (       8.000 eV)
   139     293       --         2.230 au  Ag            1.00      3 D:yz            7
                        (      60.692 eV)
   140     294      1.000      -0.167 au  Ag            1.00      1 S               8
                        (      -4.550 eV)
   141     295       --         0.050 au  Ag            1.00      2 S               8
                        (       1.356 eV)
   142     296       --         0.590 au  Ag            1.00      3 S               8
                        (      16.061 eV)
   143     297       --         0.013 au  Ag            1.00      1 P:x             8
                        (       0.354 eV)
   144     298       --         0.013 au  Ag            1.00      1 P:y             8
                        (       0.354 eV)
   145     299       --         0.013 au  Ag            1.00      1 P:z             8
                        (       0.354 eV)
   146     300      2.000      -0.277 au  Ag            1.00      1 D:z2            8
                        (      -7.546 eV)
   147     301       --         0.294 au  Ag            1.00      2 D:z2            8
                        (       8.000 eV)
   148     302       --         2.230 au  Ag            1.00      3 D:z2            8
                        (      60.692 eV)
   149     303      2.000      -0.277 au  Ag            1.00      1 D:x2-y2         8
                        (      -7.546 eV)
   150     304       --         0.294 au  Ag            1.00      2 D:x2-y2         8
                        (       8.000 eV)
   151     305       --         2.230 au  Ag            1.00      3 D:x2-y2         8
                        (      60.692 eV)
   152     306      2.000      -0.277 au  Ag            1.00      1 D:xy            8
                        (      -7.546 eV)
   153     307       --         0.294 au  Ag            1.00      2 D:xy            8
                        (       8.000 eV)
   154     308       --         2.230 au  Ag            1.00      3 D:xy            8
                        (      60.692 eV)
   155     309      2.000      -0.277 au  Ag            1.00      1 D:xz            8
                        (      -7.546 eV)
   156     310       --         0.294 au  Ag            1.00      2 D:xz            8
                        (       8.000 eV)
   157     311       --         2.230 au  Ag            1.00      3 D:xz            8
                        (      60.692 eV)
   158     312      2.000      -0.277 au  Ag            1.00      1 D:yz            8
                        (      -7.546 eV)
   159     313       --         0.294 au  Ag            1.00      2 D:yz            8
                        (       8.000 eV)
   160     314       --         2.230 au  Ag            1.00      3 D:yz            8
                        (      60.692 eV)
   161     315      1.000      -0.167 au  Ag            1.00      1 S               9
                        (      -4.550 eV)
   162     316       --         0.050 au  Ag            1.00      2 S               9
                        (       1.356 eV)
   163     317       --         0.590 au  Ag            1.00      3 S               9
                        (      16.061 eV)
   164     318       --         0.013 au  Ag            1.00      1 P:x             9
                        (       0.354 eV)
   165     319       --         0.013 au  Ag            1.00      1 P:y             9
                        (       0.354 eV)
   166     320       --         0.013 au  Ag            1.00      1 P:z             9
                        (       0.354 eV)
   167     321      2.000      -0.277 au  Ag            1.00      1 D:z2            9
                        (      -7.546 eV)
   168     322       --         0.294 au  Ag            1.00      2 D:z2            9
                        (       8.000 eV)
   169     323       --         2.230 au  Ag            1.00      3 D:z2            9
                        (      60.692 eV)
   170     324      2.000      -0.277 au  Ag            1.00      1 D:x2-y2         9
                        (      -7.546 eV)
   171     325       --         0.294 au  Ag            1.00      2 D:x2-y2         9
                        (       8.000 eV)
   172     326       --         2.230 au  Ag            1.00      3 D:x2-y2         9
                        (      60.692 eV)
   173     327      2.000      -0.277 au  Ag            1.00      1 D:xy            9
                        (      -7.546 eV)
   174     328       --         0.294 au  Ag            1.00      2 D:xy            9
                        (       8.000 eV)
   175     329       --         2.230 au  Ag            1.00      3 D:xy            9
                        (      60.692 eV)
   176     330      2.000      -0.277 au  Ag            1.00      1 D:xz            9
                        (      -7.546 eV)
   177     331       --         0.294 au  Ag            1.00      2 D:xz            9
                        (       8.000 eV)
   178     332       --         2.230 au  Ag            1.00      3 D:xz            9
                        (      60.692 eV)
   179     333      2.000      -0.277 au  Ag            1.00      1 D:yz            9
                        (      -7.546 eV)
   180     334       --         0.294 au  Ag            1.00      2 D:yz            9
                        (       8.000 eV)
   181     335       --         2.230 au  Ag            1.00      3 D:yz            9
                        (      60.692 eV)
   182     336      1.000      -0.167 au  Ag            1.00      1 S              10
                        (      -4.550 eV)
   183     337       --         0.050 au  Ag            1.00      2 S              10
                        (       1.356 eV)
   184     338       --         0.590 au  Ag            1.00      3 S              10
                        (      16.061 eV)
   185     339       --         0.013 au  Ag            1.00      1 P:x            10
                        (       0.354 eV)
   186     340       --         0.013 au  Ag            1.00      1 P:y            10
                        (       0.354 eV)
   187     341       --         0.013 au  Ag            1.00      1 P:z            10
                        (       0.354 eV)
   188     342      2.000      -0.277 au  Ag            1.00      1 D:z2           10
                        (      -7.546 eV)
   189     343       --         0.294 au  Ag            1.00      2 D:z2           10
                        (       8.000 eV)
   190     344       --         2.230 au  Ag            1.00      3 D:z2           10
                        (      60.692 eV)
   191     345      2.000      -0.277 au  Ag            1.00      1 D:x2-y2        10
                        (      -7.546 eV)
   192     346       --         0.294 au  Ag            1.00      2 D:x2-y2        10
                        (       8.000 eV)
   193     347       --         2.230 au  Ag            1.00      3 D:x2-y2        10
                        (      60.692 eV)
   194     348      2.000      -0.277 au  Ag            1.00      1 D:xy           10
                        (      -7.546 eV)
   195     349       --         0.294 au  Ag            1.00      2 D:xy           10
                        (       8.000 eV)
   196     350       --         2.230 au  Ag            1.00      3 D:xy           10
                        (      60.692 eV)
   197     351      2.000      -0.277 au  Ag            1.00      1 D:xz           10
                        (      -7.546 eV)
   198     352       --         0.294 au  Ag            1.00      2 D:xz           10
                        (       8.000 eV)
   199     353       --         2.230 au  Ag            1.00      3 D:xz           10
                        (      60.692 eV)
   200     354      2.000      -0.277 au  Ag            1.00      1 D:yz           10
                        (      -7.546 eV)
   201     355       --         0.294 au  Ag            1.00      2 D:yz           10
                        (       8.000 eV)
   202     356       --         2.230 au  Ag            1.00      3 D:yz           10
                        (      60.692 eV)



 ================================
 (Slater-type)  F U N C T I O N S  ***  (Basis and Fit)  ***
 ================================
  

 Atom Type    1  (C)
 ==============

 Valence Basis Sets:   8
 -----------------------
   1 S    5.400000
   2 S    1.280000
   2 S    2.100000
   2 S    4.600000
   2 P    0.820000
   2 P    1.480000
   2 P    2.940000
   3 D    2.200000

 Frozen Core Shells
 ------------------
    S:  1

 Atom Type    2  (O)
 ==============

 Valence Basis Sets:   8
 -----------------------
   1 S    7.360000
   2 S    1.720000
   2 S    2.880000
   2 S    7.580000
   2 P    1.120000
   2 P    2.080000
   2 P    4.080000
   3 D    2.000000

 Frozen Core Shells
 ------------------
    S:  1

 Atom Type    3  (Ag)
 ==============

 Valence Basis Sets:  15
 -----------------------
   1 S   30.800000
   2 S   20.300000
   3 S    9.550000
   4 S    5.950000
   2 P   21.100000
   3 P   10.100000
   4 P    4.450000
   3 D   11.650000
   5 S    2.600000
   5 S    1.550000
   5 S    0.950000
   4 D    4.750000
   4 D    2.600000
   4 D    1.380000
   5 P    1.550000

 Frozen Core Shells
 ------------------
    S:  4
    P:  3
    D:  1


 BAS: List of all Elementary Cartesian Basis Functions
 =====================================================

 The numbering in the list below (to the right of the function characteristics) is referred
 to in print-outs of MO eigenvectors and Mulliken populations in the BAS representation
 (as contrasted to the SFO representation).

 Notes:
 1. The functions are characterized by a polynomial prefactor (powers of x,y,z and r) and
    an exponential decay factor alpha.
 2. Since the basis sets are specific for an atom TYPE, the individual functions occur on
    all atoms of that type.
 3. The word 'Core' in the left margin signals that it is a Core Function (CF) : not a
    degree of freedom in the valence set, but only used to ensure orthogonalization of
    the other valence basis functions on the frozen Core Orbitals.


 (power of) X  Y  Z  R     Alpha  on Atom
            ==========     =====     ==========

 C                                    1
                                  ---------------------------------------------------------------------------
    Core    0  0  0  0     5.400      1
            0  0  0  1     1.280      2
            0  0  0  1     2.100      3
            0  0  0  1     4.600      4
            1  0  0  0     0.820      5
            0  1  0  0     0.820      6
            0  0  1  0     0.820      7
            1  0  0  0     1.480      8
            0  1  0  0     1.480      9
            0  0  1  0     1.480     10
            1  0  0  0     2.940     11
            0  1  0  0     2.940     12
            0  0  1  0     2.940     13
            2  0  0  0     2.200     14
            1  1  0  0     2.200     15
            1  0  1  0     2.200     16
            0  2  0  0     2.200     17
            0  1  1  0     2.200     18
            0  0  2  0     2.200     19

 O                                    2
                                  ---------------------------------------------------------------------------
    Core    0  0  0  0     7.360     20
            0  0  0  1     1.720     21
            0  0  0  1     2.880     22
            0  0  0  1     7.580     23
            1  0  0  0     1.120     24
            0  1  0  0     1.120     25
            0  0  1  0     1.120     26
            1  0  0  0     2.080     27
            0  1  0  0     2.080     28
            0  0  1  0     2.080     29
            1  0  0  0     4.080     30
            0  1  0  0     4.080     31
            0  0  1  0     4.080     32
            2  0  0  0     2.000     33
            1  1  0  0     2.000     34
            1  0  1  0     2.000     35
            0  2  0  0     2.000     36
            0  1  1  0     2.000     37
            0  0  2  0     2.000     38

 Ag                                   3    4    5    6    7    8    9   10
                                  ---------------------------------------------------------------------------
    Core    0  0  0  0    30.800     39   82  125  168  211  254  297  340
    Core    0  0  0  1    20.300     40   83  126  169  212  255  298  341
    Core    0  0  0  2     9.550     41   84  127  170  213  256  299  342
    Core    0  0  0  3     5.950     42   85  128  171  214  257  300  343
    Core    1  0  0  0    21.100     43   86  129  172  215  258  301  344
    Core    0  1  0  0    21.100     44   87  130  173  216  259  302  345
    Core    0  0  1  0    21.100     45   88  131  174  217  260  303  346
    Core    1  0  0  1    10.100     46   89  132  175  218  261  304  347
    Core    0  1  0  1    10.100     47   90  133  176  219  262  305  348
    Core    0  0  1  1    10.100     48   91  134  177  220  263  306  349
    Core    1  0  0  2     4.450     49   92  135  178  221  264  307  350
    Core    0  1  0  2     4.450     50   93  136  179  222  265  308  351
    Core    0  0  1  2     4.450     51   94  137  180  223  266  309  352
    Core    2  0  0  0    11.650     52   95  138  181  224  267  310  353
    Core    1  1  0  0    11.650     53   96  139  182  225  268  311  354
    Core    1  0  1  0    11.650     54   97  140  183  226  269  312  355
    Core    0  2  0  0    11.650     55   98  141  184  227  270  313  356
    Core    0  1  1  0    11.650     56   99  142  185  228  271  314  357
    Core    0  0  2  0    11.650     57  100  143  186  229  272  315  358
            0  0  0  4     2.600     58  101  144  187  230  273  316  359
            0  0  0  4     1.550     59  102  145  188  231  274  317  360
            0  0  0  4     0.950     60  103  146  189  232  275  318  361
            2  0  0  1     4.750     61  104  147  190  233  276  319  362
            1  1  0  1     4.750     62  105  148  191  234  277  320  363
            1  0  1  1     4.750     63  106  149  192  235  278  321  364
            0  2  0  1     4.750     64  107  150  193  236  279  322  365
            0  1  1  1     4.750     65  108  151  194  237  280  323  366
            0  0  2  1     4.750     66  109  152  195  238  281  324  367
            2  0  0  1     2.600     67  110  153  196  239  282  325  368
            1  1  0  1     2.600     68  111  154  197  240  283  326  369
            1  0  1  1     2.600     69  112  155  198  241  284  327  370
            0  2  0  1     2.600     70  113  156  199  242  285  328  371
            0  1  1  1     2.600     71  114  157  200  243  286  329  372
            0  0  2  1     2.600     72  115  158  201  244  287  330  373
            2  0  0  1     1.380     73  116  159  202  245  288  331  374
            1  1  0  1     1.380     74  117  160  203  246  289  332  375
            1  0  1  1     1.380     75  118  161  204  247  290  333  376
            0  2  0  1     1.380     76  119  162  205  248  291  334  377
            0  1  1  1     1.380     77  120  163  206  249  292  335  378
            0  0  2  1     1.380     78  121  164  207  250  293  336  379
            1  0  0  3     1.550     79  122  165  208  251  294  337  380
            0  1  0  3     1.550     80  123  166  209  252  295  338  381
            0  0  1  3     1.550     81  124  167  210  253  296  339  382

 Total number of charge fitting functions (nprimf)      1884
 Total number of Cartesian basis functions (naos)        382
 Total number of Cartesian core functions  (ncos)        154

1
 ***************************************************************************************************



                                              ***********************
                                              *  T E C H N I C A L  *
                                              ***********************
  



 =============================================================
 P A R A L L E L I Z A T I O N  and  V E C T O R I Z A T I O N
 =============================================================
  
 Nr of parallel processes:                               20
 Maximum vector length in NumInt loops:                 128



 =====================
 S C F   U P D A T E S
 =====================
  
 Max. nr. of cycles:                               300
 Convergence criterion:                              0.0000010000
   secondary criterion:                              0.0010000000

 Mix parameter (when DIIS does not apply):           0.2000000000
 Mixed ADIIS+SDIIS will be used                  
    Max number of expansion vectors:                10
    Pure ADIIS when Max([F,P]) is above              0.1000000000
    Pure SDIIS when Max([F,P]) is below              0.0010000000
 Automatic ElectronSmearing (in case of problematic SCF convergence) disabled



 =================
 P R E C I S I O N  ***  (General: NumInt, NeglectFunctionTails, ...)  ***
 =================
  

 NumInt:           Target precision:                 4.0000000000
 -------           Initial precision:                4.0000000000
                   Min. precision (optimization):    4.0000000000

 Neglect Functions:          Basis functions:        0.1000000000E-13
 ------------------          Fit functions:          0.1000000000E-13



 ===========================
 L I N E A R   S C A L I N G
 ===========================
  

 Cut-off radii density fit:                        0.1000000000E-07
 Overlap cut-off criterion AO matrix elements:     0.1000000000E-05
 Cut-offs for Coulomb potential and fitted density:0.1000000000E-07
 Cut-off criterion for Coulomb multipole terms:    0.1000000000E-07
 Progressive Convergence parameter:                 0.000000000    
1
 ***************************************************************************************************



                                            ***************************
                                            *  C O M P U T A T I O N  *
                                            ***************************
  

 Number of elements of the density matrix on this node (used, total):      4102     73153



 ===========================================
 Numerical Integration : Fuzzy Cells (Becke)
 ===========================================
  
 Becke grid quality: NORMAL         
  
 Lebedev angular grid order:             min:  11 max:  23
 Nr. of radial points:                   min:  49 max:  83

 Total nr. of points:      97933
 Nr. of blocks:              766
 Block length:               128
 Nr. of dummy points:        115


 Test of Precision of the Numerical Integration Grid
 ===================================================

 Integral of the Total Core Density:                 291.99998375563803
 Relative Error:                                      -5.563E-08



 ========================
 Density Fitting (zlmFit)
 ========================
  
 ZlmFit Fit Quality: NORMAL         
  
 Max L-expansion:                        min:   6 max:   6
 Nr. of radial interpolation points:     min:  42 max:  69



 =====
 S C F  ***  ScaSCF  ***
 =====
  
 Initial density matrix is calculated as sum of fragments

 CYCLE    1
 SCF Error: norm([F,P])=      1.120221636903, max([F,P])=      0.402616930828
 orbitals (Q,E):
 ---------------
 A :40...59          ( 2.00    -0.2656)  ( 2.00    -0.2643)  ( 2.00    -0.2631)  ( 2.00    -0.2630)
                     ( 2.00    -0.2627)  ( 2.00    -0.2614)  ( 2.00    -0.2605)  ( 2.00    -0.2135)
                     ( 2.00    -0.1945)  ( 2.00    -0.1906)  ( 0.00    -0.1447)  ( 0.00    -0.1434)
                     ( 0.00    -0.1165)  ( 0.00    -0.1142)  ( 0.00    -0.1108)  ( 0.00    -0.0897)
                     ( 0.00    -0.0643)  ( 0.00    -0.0554)  ( 0.00    -0.0261)  ( 0.00    -0.0162)

 CYCLE    2
  SDIIS (wt  0.000):  0.3450  0.6550
 A-DIIS (wt  1.000):  0.0000  1.0000
  DIIS coefficients:  0.0000  1.0000
 SCF Error: norm([F,P])=      0.746224281186, max([F,P])=      0.155446309176
 orbitals (Q,E):
 ---------------
 A :40...50          ( 2.00    -0.2910)  ( 2.00    -0.2908)  ( 2.00    -0.2893)  ( 2.00    -0.2878)
                     ( 2.00    -0.2265)  ( 2.00    -0.2212)  ( 2.00    -0.2119)  ( 2.00    -0.1975)
                     ( 2.00    -0.1918)  ( 2.00    -0.1738)  ( 0.00    -0.1313)

 CYCLE    3
  SDIIS (wt  0.000):  0.0942  0.6629  0.2429
 A-DIIS (wt  1.000):  0.0000  0.7875  0.2125
  DIIS coefficients:  0.0000  0.7875  0.2125
 SCF Error: norm([F,P])=      1.804634811756, max([F,P])=      0.591075747777
 orbitals (Q,E):
 ---------------
 A :40...50          ( 2.00    -0.2727)  ( 2.00    -0.2707)  ( 2.00    -0.2702)  ( 2.00    -0.2684)
                     ( 2.00    -0.2675)  ( 2.00    -0.2659)  ( 2.00    -0.2564)  ( 2.00    -0.2093)
                     ( 2.00    -0.1834)  ( 2.00    -0.1697)  ( 0.00    -0.1182)

 CYCLE    4
  SDIIS (wt  0.085):  0.4434  0.0890  0.4676
 A-DIIS (wt  0.915):  0.3394  0.0000  0.6606
  DIIS coefficients:  0.3483  0.0076  0.6441
 SCF Error: norm([F,P])=      0.447496410844, max([F,P])=      0.091556401543
 orbitals (Q,E):
 ---------------
 A :40...50          ( 2.00    -0.2606)  ( 2.00    -0.2597)  ( 2.00    -0.2584)  ( 2.00    -0.2560)
                     ( 2.00    -0.2550)  ( 2.00    -0.2544)  ( 2.00    -0.2527)  ( 2.00    -0.2046)
                     ( 2.00    -0.1823)  ( 2.00    -0.1742)  ( 0.00    -0.1189)

 CYCLE    5
  SDIIS (wt  0.000):  0.2055 -0.0496  0.5151  0.3289
 A-DIIS (wt  1.000):  0.1727  0.0000  0.4456  0.3816
  DIIS coefficients:  0.1727  0.0000  0.4456  0.3816
 SCF Error: norm([F,P])=      0.467529776874, max([F,P])=      0.163719975408
 orbitals (Q,E):
 ---------------
 A :40...50          ( 2.00    -0.2643)  ( 2.00    -0.2634)  ( 2.00    -0.2617)  ( 2.00    -0.2610)
                     ( 2.00    -0.2600)  ( 2.00    -0.2585)  ( 2.00    -0.2561)  ( 2.00    -0.2057)
                     ( 2.00    -0.1820)  ( 2.00    -0.1751)  ( 0.00    -0.1158)

 CYCLE    6
  SDIIS (wt  0.000):  0.0524 -0.0198  0.2888  0.3466  0.3320
 A-DIIS (wt  1.000):  0.0000  0.0000  0.0458  0.3643  0.5898
  DIIS coefficients:  0.0000  0.0000  0.0458  0.3643  0.5898
 SCF Error: norm([F,P])=      0.344019771025, max([F,P])=      0.113143284411
 orbitals (Q,E):
 ---------------
 A :40...50          ( 2.00    -0.2689)  ( 2.00    -0.2674)  ( 2.00    -0.2664)  ( 2.00    -0.2624)
                     ( 2.00    -0.2619)  ( 2.00    -0.2599)  ( 2.00    -0.2587)  ( 2.00    -0.2090)
                     ( 2.00    -0.1851)  ( 2.00    -0.1744)  ( 0.00    -0.1174)

 CYCLE    7
  SDIIS (wt  0.505): -0.0163 -0.0080  0.0791  0.2701  0.4413  0.2337
 A-DIIS (wt  0.495):  0.0000  0.0000  0.0000  0.1045  0.4057  0.4898
  DIIS coefficients: -0.0082 -0.0040  0.0399  0.1881  0.4237  0.3605
 SCF Error: norm([F,P])=      0.234132696819, max([F,P])=      0.050018712708
 orbitals (Q,E):
 ---------------
 A :40...50          ( 2.00    -0.2610)  ( 2.00    -0.2605)  ( 2.00    -0.2594)  ( 2.00    -0.2581)
                     ( 2.00    -0.2576)  ( 2.00    -0.2562)  ( 2.00    -0.2561)  ( 2.00    -0.2042)
                     ( 2.00    -0.1804)  ( 2.00    -0.1730)  ( 0.00    -0.1154)

 CYCLE    8
  SDIIS (wt  0.851): -0.0129 -0.0062  0.0244  0.1416  0.3179  0.2812  0.2539
 A-DIIS (wt  0.149):  0.0000  0.0000  0.0000  0.0000  0.0447  0.2084  0.7469
  DIIS coefficients: -0.0110 -0.0053  0.0208  0.1206  0.2773  0.2704  0.3272
 SCF Error: norm([F,P])=      0.090534999550, max([F,P])=      0.015720349205
 orbitals (Q,E):
 ---------------
 A :40...50          ( 2.00    -0.2649)  ( 2.00    -0.2627)  ( 2.00    -0.2621)  ( 2.00    -0.2606)
                     ( 2.00    -0.2598)  ( 2.00    -0.2592)  ( 2.00    -0.2583)  ( 2.00    -0.2059)
                     ( 2.00    -0.1824)  ( 2.00    -0.1736)  ( 0.00    -0.1158)

 CYCLE    9
  SDIIS (wt  0.947): -0.0051 -0.0011 -0.0116  0.0060  0.1011  0.1778  0.3539  0.3790
 A-DIIS (wt  0.053):  0.0000  0.0000  0.0000  0.0000  0.0000  0.0000  0.2091  0.7909
  DIIS coefficients: -0.0049 -0.0010 -0.0110  0.0057  0.0957  0.1683  0.3462  0.4009
 SCF Error: norm([F,P])=      0.034680121046, max([F,P])=      0.006272716711
 orbitals (Q,E):
 ---------------
 A :40...50          ( 2.00    -0.2637)  ( 2.00    -0.2633)  ( 2.00    -0.2621)  ( 2.00    -0.2608)
                     ( 2.00    -0.2603)  ( 2.00    -0.2596)  ( 2.00    -0.2585)  ( 2.00    -0.2060)
                     ( 2.00    -0.1823)  ( 2.00    -0.1740)  ( 0.00    -0.1160)

 CYCLE   10
  SDIIS (wt  0.998): -0.0021 -0.0006 -0.0071 -0.0034  0.0450  0.0932  0.2179  0.2966  0.3606
 A-DIIS (wt  0.002):  0.0000  0.0000  0.0000  0.0000  0.0000  0.0000  0.0000  0.0497  0.9503
  DIIS coefficients: -0.0021 -0.0006 -0.0071 -0.0034  0.0450  0.0930  0.2174  0.2961  0.3618
 SCF Error: norm([F,P])=      0.007621029116, max([F,P])=      0.001199018682
 orbitals (Q,E):
 ---------------
 A :40...50          ( 2.00    -0.2637)  ( 2.00    -0.2631)  ( 2.00    -0.2620)  ( 2.00    -0.2606)
                     ( 2.00    -0.2600)  ( 2.00    -0.2594)  ( 2.00    -0.2583)  ( 2.00    -0.2059)
                     ( 2.00    -0.1822)  ( 2.00    -0.1737)  ( 0.00    -0.1159)

 CYCLE   11
  SDIIS (wt  1.000):  0.0002 -0.0004 -0.0010 -0.0028  0.0114  0.0288  0.0820  0.1345  0.2535  0.4940
  DIIS coefficients:  0.0002 -0.0004 -0.0010 -0.0028  0.0114  0.0288  0.0820  0.1345  0.2535  0.4940
 SCF Error: norm([F,P])=      0.001963659117, max([F,P])=      0.000279684523
 orbitals (Q,E):
 ---------------
 A :40...50          ( 2.00    -0.2637)  ( 2.00    -0.2631)  ( 2.00    -0.2619)  ( 2.00    -0.2606)
                     ( 2.00    -0.2600)  ( 2.00    -0.2594)  ( 2.00    -0.2583)  ( 2.00    -0.2059)
                     ( 2.00    -0.1821)  ( 2.00    -0.1737)  ( 0.00    -0.1159)

 CYCLE   12
  SDIIS (wt  1.000): -0.0001 -0.0003 -0.0009  0.0027  0.0056  0.0189  0.0417  0.1095  0.2827  0.5403
  DIIS coefficients: -0.0001 -0.0003 -0.0009  0.0027  0.0056  0.0189  0.0417  0.1095  0.2827  0.5403
 SCF Error: norm([F,P])=      0.000667750698, max([F,P])=      0.000139843324
 orbitals (Q,E):
 ---------------
 A :40...50          ( 2.00    -0.2637)  ( 2.00    -0.2631)  ( 2.00    -0.2619)  ( 2.00    -0.2606)
                     ( 2.00    -0.2600)  ( 2.00    -0.2594)  ( 2.00    -0.2583)  ( 2.00    -0.2059)
                     ( 2.00    -0.1821)  ( 2.00    -0.1737)  ( 0.00    -0.1159)

 CYCLE   13
  SDIIS (wt  1.000): -0.0001 -0.0006  0.0004  0.0003  0.0048  0.0183  0.0626  0.1698  0.4307  0.3138
  DIIS coefficients: -0.0001 -0.0006  0.0004  0.0003  0.0048  0.0183  0.0626  0.1698  0.4307  0.3138
 SCF Error: norm([F,P])=      0.000427020340, max([F,P])=      0.000062995665
 orbitals (Q,E):
 ---------------
 A :40...50          ( 2.00    -0.2637)  ( 2.00    -0.2631)  ( 2.00    -0.2620)  ( 2.00    -0.2606)
                     ( 2.00    -0.2600)  ( 2.00    -0.2594)  ( 2.00    -0.2583)  ( 2.00    -0.2059)
                     ( 2.00    -0.1821)  ( 2.00    -0.1738)  ( 0.00    -0.1159)

 CYCLE   14
  SDIIS (wt  1.000): -0.0002  0.0002  0.0000  0.0025  0.0104  0.0374  0.0960  0.2526  0.2130  0.3882
  DIIS coefficients: -0.0002  0.0002  0.0000  0.0025  0.0104  0.0374  0.0960  0.2526  0.2130  0.3882
 SCF Error: norm([F,P])=      0.000091493820, max([F,P])=      0.000014739537
 orbitals (Q,E):
 ---------------
 A :40...50          ( 2.00    -0.2637)  ( 2.00    -0.2631)  ( 2.00    -0.2620)  ( 2.00    -0.2606)
                     ( 2.00    -0.2600)  ( 2.00    -0.2594)  ( 2.00    -0.2583)  ( 2.00    -0.2059)
                     ( 2.00    -0.1821)  ( 2.00    -0.1738)  ( 0.00    -0.1159)

 CYCLE   15
  SDIIS (wt  1.000):  0.0002  0.0001  0.0006  0.0026  0.0108  0.0247  0.0818  0.0824  0.2789  0.5179
  DIIS coefficients:  0.0002  0.0001  0.0006  0.0026  0.0108  0.0247  0.0818  0.0824  0.2789  0.5179
 SCF Error: norm([F,P])=      0.000045289968, max([F,P])=      0.000005781664
 orbitals (Q,E):
 ---------------
 A :40...50          ( 2.00    -0.2637)  ( 2.00    -0.2631)  ( 2.00    -0.2620)  ( 2.00    -0.2606)
                     ( 2.00    -0.2600)  ( 2.00    -0.2594)  ( 2.00    -0.2583)  ( 2.00    -0.2059)
                     ( 2.00    -0.1821)  ( 2.00    -0.1738)  ( 0.00    -0.1159)

 CYCLE   16
  SDIIS (wt  1.000): -0.0000 -0.0001  0.0004  0.0027  0.0060  0.0224  0.0214  0.1077  0.2617  0.5778
  DIIS coefficients: -0.0000 -0.0001  0.0004  0.0027  0.0060  0.0224  0.0214  0.1077  0.2617  0.5778
 SCF Error: norm([F,P])=      0.000010709760, max([F,P])=      0.000001357057
 orbitals (Q,E):
 ---------------
 A :40...50          ( 2.00    -0.2637)  ( 2.00    -0.2631)  ( 2.00    -0.2620)  ( 2.00    -0.2606)
                     ( 2.00    -0.2600)  ( 2.00    -0.2594)  ( 2.00    -0.2583)  ( 2.00    -0.2059)
                     ( 2.00    -0.1821)  ( 2.00    -0.1738)  ( 0.00    -0.1159)

 CYCLE   17
  SDIIS (wt  1.000): -0.0000  0.0001  0.0008  0.0016  0.0062  0.0066  0.0505  0.1256  0.3287  0.4799
  DIIS coefficients: -0.0000  0.0001  0.0008  0.0016  0.0062  0.0066  0.0505  0.1256  0.3287  0.4799
 SCF Error: norm([F,P])=      0.000002701260, max([F,P])=      0.000000489749
 orbitals (Q,E):
 ---------------
 A :40...50          ( 2.00    -0.2637)  ( 2.00    -0.2631)  ( 2.00    -0.2620)  ( 2.00    -0.2606)
                     ( 2.00    -0.2600)  ( 2.00    -0.2594)  ( 2.00    -0.2583)  ( 2.00    -0.2059)
                     ( 2.00    -0.1821)  ( 2.00    -0.1738)  ( 0.00    -0.1159)

 SCF CONVERGED

 CYCLE   18
1
 ***************************************************************************************************



                                                *******************
                                                *  R E S U L T S  *
                                                *******************
  
 *** Using FIT density in Focky
  SDIIS (wt  1.000):  0.0000  0.0002  0.0005  0.0013  0.0015  0.0149  0.0328  0.1118  0.3001  0.5369
  DIIS coefficients:  0.0000  0.0002  0.0005  0.0013  0.0015  0.0149  0.0328  0.1118  0.3001  0.5369
 SCF Error: norm([F,P])=      0.000001370997, max([F,P])=      0.000000267594

 Scaled ZORA Orbital Energies, per Irrep and Spin:
 =================================================
                        Occup              E (au)              E (eV)       Diff (eV) with prev. cycle
                        -----      --------------------        ------       --------------------------
 A
              40        2.000     -0.26369226517195E+00        -7.175              -9.54E-09
              41        2.000     -0.26309174275615E+00        -7.159               4.33E-07
              42        2.000     -0.26195533103955E+00        -7.128              -6.33E-08
              43        2.000     -0.26056464457886E+00        -7.090               3.10E-07
              44        2.000     -0.26003352200798E+00        -7.076               2.41E-07
              45        2.000     -0.25944378358693E+00        -7.060               9.42E-08
              46        2.000     -0.25831450417383E+00        -7.029               9.06E-08
              47        2.000     -0.20587553845689E+00        -5.602               3.85E-07
              48        2.000     -0.18214648818666E+00        -4.956               6.44E-07
              49        2.000     -0.17375382014976E+00        -4.728               1.17E-06
              50        0.000     -0.11589111151497E+00        -3.154
              51        0.000     -0.10898588063133E+00        -2.966
              52        0.000     -0.10776071588748E+00        -2.932
              53        0.000     -0.10157964695515E+00        -2.764
              54        0.000     -0.88871871376682E-01        -2.418
              55        0.000     -0.74758422107708E-01        -2.034
              56        0.000     -0.47803947530903E-01        -1.301
              57        0.000     -0.38743916902554E-01        -1.054
              58        0.000     -0.17461041405818E-01        -0.475
              59        0.000     -0.83039342381792E-02        -0.226
  
 HOMO :       49 A                -0.17375382014976E+00
 LUMO :       50 A                -0.11589111151497E+00
  


 Scaled ZORA Orbital Energies of the Core Orbitals:
 ==================================================

 (Note that the atoms are grouped by atomtype, see the labels, and may hence NOT be in input order)

 AtomType  Orbital  Atom                   E (au)                        E (eV)
 --------  -------  ----           --------------------        ----------------
 C           1S        1          -0.10044005204067E+02                -273.311
 O           1S        2          -0.18901054930936E+02                -514.324
 Ag          1S        3          -0.93043273860650E+03              -25318.363
                       4          -0.93040899956624E+03              -25317.717
                       5          -0.93041179863061E+03              -25317.793
                       6          -0.93040950080074E+03              -25317.731
                       7          -0.93040861395045E+03              -25317.707
                       8          -0.93041284683374E+03              -25317.822
                       9          -0.93040801672369E+03              -25317.690
                      10          -0.93041304228933E+03              -25317.827
             2S        3          -0.13699161173772E+03               -3727.731
                       4          -0.13696762139596E+03               -3727.079
                       5          -0.13697046054731E+03               -3727.156
                       6          -0.13696813974604E+03               -3727.093
                       7          -0.13696733015674E+03               -3727.071
                       8          -0.13697151432473E+03               -3727.185
                       9          -0.13696663966138E+03               -3727.052
                      10          -0.13697170770912E+03               -3727.190
             3S        3          -0.25131808546820E+02                -683.871
                       4          -0.25108558321985E+02                -683.239
                       5          -0.25111481862911E+02                -683.318
                       6          -0.25109043957185E+02                -683.252
                       7          -0.25108320984771E+02                -683.232
                       8          -0.25112534078823E+02                -683.347
                       9          -0.25107578841697E+02                -683.212
                      10          -0.25112741822744E+02                -683.352
             4S        3          -0.35365127404002E+01                 -96.233
                       4          -0.35151039542573E+01                 -95.651
                       5          -0.35182672422964E+01                 -95.737
                       6          -0.35155206342557E+01                 -95.662
                       7          -0.35150153938758E+01                 -95.648
                       8          -0.35193121836722E+01                 -95.765
                       9          -0.35141380050756E+01                 -95.625
                      10          -0.35195539923656E+01                 -95.772
             2P        3          -0.12284389732229E+03               -3342.753
                       4          -0.12281990795169E+03               -3342.100
                       5          -0.12282274532163E+03               -3342.177
                       6          -0.12282042610143E+03               -3342.114
                       7          -0.12281961180769E+03               -3342.092
                       8          -0.12282379892714E+03               -3342.206
                       9          -0.12281892618502E+03               -3342.073
                      10          -0.12282399176928E+03               -3342.211
             3P        3          -0.20516036321323E+02                -558.270
                       4          -0.20492782987749E+02                -557.637
                       5          -0.20495707008184E+02                -557.717
                       6          -0.20493268926725E+02                -557.650
                       7          -0.20492546497780E+02                -557.631
                       8          -0.20496759297147E+02                -557.745
                       9          -0.20491803548929E+02                -557.610
                      10          -0.20496966920899E+02                -557.751
             4P        3          -0.22003616038219E+01                 -59.875
                       4          -0.21794669620483E+01                 -59.306
                       5          -0.21827174620384E+01                 -59.395
                       6          -0.21798655902587E+01                 -59.317
                       7          -0.21794305925530E+01                 -59.305
                       8          -0.21837598618341E+01                 -59.423
                       9          -0.21785012671734E+01                 -59.280
                      10          -0.21840081692847E+01                 -59.430
             3D        3          -0.13215659433072E+02                -359.616
                       4          -0.13192304894777E+02                -358.981
                       5          -0.13195220083799E+02                -359.060
                       6          -0.13192795579160E+02                -358.994
                       7          -0.13192066020877E+02                -358.974
                       8          -0.13196272820515E+02                -359.089
                       9          -0.13191325173537E+02                -358.954
                      10          -0.13196478756576E+02                -359.094


 Fit test: (difference of exact and fit density, squared integrated, result summed over spins)
         Sum-of-Fragments:                             0.00000000005603
         Orthogonalized Fragments:                     0.00008367190206
         SCF:                                          0.00028150193843



 ==========================
 Electron Density at Nuclei
 ==========================
  
 The electron density is calculated at points on a small sphere around the center of a nucleus.
 The printed electron density is the average electron density on these points.
 The radius of the sphere is the printed approximate finite nuclear radius.
 Note: ZORA-4 density is used, which includes small component density

         Atom        Nuclear Radius (Angstrom)             Electron Density (a.u.)
         ----        -------------------------             -----------------------
     1)   C                 0.0000320678                              127.51731
     2)   O                 0.0000345546                              316.13448
     3)   Ag                0.0000585966                           141430.03312
     4)   Ag                0.0000585966                           141430.02520
     5)   Ag                0.0000585966                           141430.48986
     6)   Ag                0.0000585966                           141430.06191
     7)   Ag                0.0000585966                           141430.60841
     8)   Ag                0.0000585966                           141430.51912
     9)   Ag                0.0000585966                           141430.02813
    10)   Ag                0.0000585966                           141430.49334



 =======================================
 M U L L I K E N   P O P U L A T I O N S
 =======================================
  
 The survey below gives for each atom:
 a) the total charge (Z minus electrons)
 b) the net spin polarization (nr of electrons spin-A minus spin-B)
 c) for each spin the atomic electron valence density (integrated) per L-value.

 Atom              Charge    Spin density          S         P         D         F
 ----              ------    ------------       ------    ------    ------    ------
 1 C               0.2756                       1.6102    2.0307    0.0835    0.0000
 2 O              -0.2891                       1.8702    4.3609    0.0580    0.0000
 3 Ag              0.1189                       0.7023    0.4130    9.7657    0.0000
 4 Ag              0.0627                       0.8358    0.2636    9.8379    0.0000
 5 Ag             -0.0728                       0.9813    0.2157    9.8758    0.0000
 6 Ag              0.0603                       0.8402    0.2638    9.8357    0.0000
 7 Ag             -0.0843                       0.9902    0.2199    9.8742    0.0000
 8 Ag             -0.0689                       0.9825    0.2108    9.8756    0.0000
 9 Ag              0.0658                       0.8299    0.2650    9.8394    0.0000
 10 Ag            -0.0682                       0.9776    0.2148    9.8757    0.0000

 Populations of individual BAS functions
 ----------------------------------------
 1 C            0.0007  0.7649  0.8779 -0.0333 -0.0106 -0.0027 -0.0204  0.5114  0.4970  0.5783
                0.1564  0.1280  0.1933  0.0087  0.0106  0.0180  0.0015  0.0183  0.0264
 2 O            0.0005  0.8940  0.9928 -0.0172  0.2886  0.3184  0.2485  0.8926  0.8801  0.9213
                0.2679  0.2624  0.2810  0.0087  0.0075  0.0123 -0.0019  0.0122  0.0191
 3 Ag          -0.0003  0.0002 -0.0022  0.0287  0.0000  0.0000  0.0000  0.0001  0.0001  0.0001
                0.0011  0.0014  0.0021  0.0384  0.0575  0.0569  0.0380  0.0578  0.0380  0.2629
                0.4540 -0.0409  0.5511  0.8195  0.8108  0.5413  0.8228  0.5387  0.6503  0.9540
                0.9482  0.6294  0.9535  0.6186  0.0953  0.1328  0.1271  0.0908  0.1255  0.0695
                0.1364  0.1224  0.1493
 4 Ag          -0.0003  0.0002 -0.0023  0.0284  0.0000  0.0000  0.0000  0.0000  0.0001  0.0001
                0.0007  0.0011  0.0010  0.0384  0.0575  0.0578  0.0383  0.0570  0.0384  0.2820
                0.5028  0.0250  0.5505  0.8197  0.8237  0.5422  0.8124  0.5478  0.6473  0.9566
                0.9615  0.6233  0.9538  0.6412  0.0927  0.1317  0.1240  0.0927  0.1369  0.0928
                0.0496  0.0900  0.1210
 5 Ag          -0.0003  0.0002 -0.0024  0.0296  0.0000  0.0000  0.0000  0.0000  0.0000  0.0000
                0.0006  0.0007  0.0007  0.0382  0.0576  0.0574  0.0383  0.0575  0.0383  0.3201
                0.6074  0.0268  0.5462  0.8216  0.8190  0.5439  0.8200  0.5469  0.6440  0.9587
                0.9550  0.6269  0.9572  0.6431  0.0891  0.1416  0.1430  0.1013  0.1448  0.0864
                0.0698  0.0593  0.0845
 6 Ag          -0.0003  0.0002 -0.0023  0.0285  0.0000  0.0000  0.0000  0.0000  0.0001  0.0001
                0.0007  0.0011  0.0010  0.0384  0.0575  0.0578  0.0383  0.0570  0.0384  0.2827
                0.5048  0.0266  0.5505  0.8196  0.8232  0.5423  0.8123  0.5478  0.6475  0.9564
                0.9606  0.6231  0.9537  0.6410  0.0923  0.1317  0.1237  0.0928  0.1368  0.0931
                0.0503  0.0904  0.1201
 7 Ag          -0.0003  0.0002 -0.0025  0.0300  0.0000  0.0000  0.0000  0.0000  0.0000  0.0000
                0.0006  0.0007  0.0008  0.0382  0.0576  0.0574  0.0383  0.0574  0.0383  0.3224
                0.6096  0.0308  0.5461  0.8213  0.8187  0.5445  0.8193  0.5467  0.6443  0.9584
                0.9542  0.6266  0.9560  0.6418  0.0886  0.1419  0.1430  0.1029  0.1464  0.0861
                0.0681  0.0566  0.0932
 8 Ag          -0.0003  0.0002 -0.0024  0.0297  0.0000  0.0000  0.0000  0.0000  0.0000  0.0000
                0.0008  0.0007  0.0005  0.0383  0.0574  0.0574  0.0383  0.0576  0.0383  0.3194
                0.6066  0.0293  0.5465  0.8192  0.8187  0.5450  0.8211  0.5470  0.6394  0.9562
                0.9553  0.6281  0.9587  0.6478  0.0861  0.1465  0.1426  0.1017  0.1412  0.0872
                0.0850  0.0592  0.0645
 9 Ag          -0.0003  0.0002 -0.0023  0.0284  0.0000  0.0000  0.0000  0.0000  0.0001  0.0000
                0.0009  0.0012  0.0008  0.0383  0.0570  0.0578  0.0383  0.0576  0.0384  0.2818
                0.4973  0.0248  0.5475  0.8124  0.8233  0.5422  0.8204  0.5504  0.6414  0.9541
                0.9612  0.6221  0.9571  0.6477  0.0940  0.1366  0.1249  0.0934  0.1310  0.0926
                0.1113  0.0921  0.0585
 10 Ag         -0.0003  0.0002 -0.0024  0.0296  0.0000  0.0000  0.0000  0.0000  0.0000  0.0000
                0.0008  0.0007  0.0005  0.0383  0.0574  0.0574  0.0383  0.0576  0.0383  0.3183
                0.6043  0.0280  0.5466  0.8190  0.8186  0.5450  0.8213  0.5469  0.6394  0.9562
                0.9552  0.6286  0.9589  0.6472  0.0864  0.1462  0.1427  0.1024  0.1412  0.0865
                0.0861  0.0606  0.0661

 Gross Charges per Atom (Z minus electrons)
 ==========================================
             0.2756   -0.2891    0.1189    0.0627   -0.0728    0.0603   -0.0843   -0.0689    0.0658   -0.0682
 Net Total:  0.00000000


 Atom-Atom Population Matrix (off-diagonal elements not doubled)
 ===============================================================

     1 :     3.1017
     2 :     0.4811    5.8230
     3 :     0.1443   -0.0112   10.2696
     4 :     0.0024   -0.0011    0.0766   10.4555
     5 :     0.0020   -0.0026    0.1713    0.1222   10.6254
     6 :    -0.0015    0.0001    0.0823   -0.0538    0.1235   10.4559
     7 :    -0.0004    0.0001   -0.0295    0.1132    0.0946    0.1096   10.6326
     8 :    -0.0041    0.0001    0.1132   -0.0332   -0.0121    0.1874   -0.0190   10.6130
     9 :     0.0000    0.0001   -0.0438    0.0694   -0.0390    0.0703    0.2015    0.1038   10.4631
    10 :    -0.0010   -0.0004    0.1082    0.1862   -0.0126   -0.0339   -0.0182    0.1199    0.1089   10.6113



 =================================================
 H I R S H F E L D   C H A R G E   A N A L Y S I S
 =================================================
  
 For each fragment: the (numerical) integral of rho(scf) * rho(fragment)/rho(sum-of-fragments)
 (nuclear charges are included, electrons are counted negative)

 The fragments and their ordering are defined in the early G E O M E T R Y output section.
 If you use single-atom fragments, this usually implies that all atoms of the same
[...]
       2.211  0.00    70 A         22.58%     2 S               1.356  0.00     3 Ag
                                   22.09%     2 S               1.356  0.00     4 Ag
                                   19.44%     2 S               1.356  0.00     9 Ag
                                   18.78%     2 S               1.356  0.00     6 Ag
                                   12.71%     2 S               1.356  0.00    10 Ag
                                   10.04%     2 S               1.356  0.00     7 Ag
                                   -6.56%     1 S              -4.550  1.00     6 Ag
                                    4.74%     2 P:z             4.695  0.00     1 C
                                   -4.41%     1 S              -4.550  1.00     3 Ag
                                   -4.21%     1 S              -4.550  1.00     4 Ag
                                   -2.26%     1 S              -4.550  1.00    10 Ag
                                   -1.72%     1 S              -4.550  1.00     9 Ag
                                    1.23%     1 P:x            -5.426  0.67     1 C
       2.282  0.00    71 A         19.77%     2 S               1.356  0.00     5 Ag
                                   10.69%     1 P:z             0.354  0.00     6 Ag
                                    9.90%     1 P:z             0.354  0.00     4 Ag
                                    8.30%     1 S              -4.550  1.00     3 Ag
                                    7.88%     2 S               1.356  0.00    10 Ag
                                    7.01%     2 S               1.356  0.00     9 Ag
                                    6.71%     2 S               1.356  0.00     4 Ag
                                   -4.63%     1 S              -4.550  1.00     5 Ag
                                    3.39%     1 P:z             0.354  0.00     9 Ag
                                   -2.60%     2 P:z             4.695  0.00     1 C
                                    2.38%     2 D:xz            8.000  0.00     4 Ag
                                    2.27%     1 P:x             0.354  0.00    10 Ag
                                    2.25%     1 P:z             0.354  0.00     3 Ag
                                   -2.09%     1 S              -4.550  1.00     8 Ag
                                    1.83%     2 S               1.356  0.00     6 Ag
                                    1.73%     1 P:y             0.354  0.00    10 Ag
                                    1.71%     2 D:xz            8.000  0.00     6 Ag
                                   -1.68%     2 S              11.654  0.00     1 C
                                    1.39%     1 P:z             0.354  0.00     8 Ag
                                    1.28%     1 P:z             0.354  0.00     5 Ag
                                    1.24%     1 P:x             0.354  0.00     6 Ag
                                   -1.23%     1 S              -4.550  1.00     7 Ag
                                    1.17%     2 P:y             4.695  0.00     1 C



 ==================
 AOResponse routine  ***  Version 09/07 (scalar- or non-relativistic)  ***
 ==================
  
 *** number of frequencies =           1
 *** frequency #           1 =  0.000000000000000E+000  Hartree, 
  0.000000000000000E+000  eV
 
 No. of frequency:           1

    Dipmat_x            
    using first order VWN potential
 
    NOTE: We will NOT use the GGA kernel (input option ALDA was set)
 
 CRIT   1.00000000000000     
 iter.  1 V(1) measure  0.4443004981012E+04
 *** convergence criterion : .4443005E-02
 CRIT   225.877845554472     
 iter.  2 V(1) measure  0.4029247119113E+04
        2        delta  0.4137578618985E+03
 CRIT   97.3392193552824     
 iter.  3 V(1) measure  0.4018963130573E+04
        3        delta  0.1028398853959E+02
 CRIT   28.8276226989425     
 iter.  4 V(1) measure  0.4013242846552E+04
        4        delta  0.5720284020977E+01
 CRIT   12.4987044710439     
 iter.  5 V(1) measure  0.4008779563440E+04
        5        delta  0.4463283112298E+01
 CRIT   2.82416553078342     
 iter.  6 V(1) measure  0.4007907284189E+04
        6        delta  0.8722792515609E+00
 CRIT   2.08932476371045     
 iter.  7 V(1) measure  0.4007589294973E+04
        7        delta  0.3179892155463E+00
 CRIT  0.882457913648889     
 iter.  8 V(1) measure  0.4007684352739E+04
        8        delta  0.9505776644346E-01
 CRIT  0.231476463443490     
 iter.  9 V(1) measure  0.4007729234145E+04
        9        delta  0.4488140547892E-01
 CRIT  0.132221133888119     
 iter. 10 V(1) measure  0.4007765437873E+04
       10        delta  0.3620372767909E-01
 CRIT  3.005826270388280E-002
 iter. 11 V(1) measure  0.4007777151789E+04
       11        delta  0.1171391589924E-01
 CRIT  1.100600261905835E-002
 iter. 12 V(1) measure  0.4007780457932E+04
       12        delta  0.3306143744339E-02
 *** convergence reached
 ----------------------------------------------
Hirshfeld fragment: 1 C
pol_frag_loc x              4.07848
pol_frag_loc y             -0.53867
pol_frag_loc z             -1.03542
charge_frag                -0.37656
pol_frag_non-loc x         -0.21321
pol_frag_non-loc y          0.70997
pol_frag_non-loc z         -2.24729
 ----------------------------------------------
Hirshfeld fragment: 1 O
pol_frag_loc x              2.64536
pol_frag_loc y              0.05360
pol_frag_loc z              0.36619
charge_frag                 2.00657
pol_frag_non-loc x          3.58339
pol_frag_non-loc y         -2.32622
pol_frag_non-loc z         15.26948
 ----------------------------------------------
Hirshfeld fragment: 1 Ag
pol_frag_loc x              8.42986
pol_frag_loc y              0.25338
pol_frag_loc z             -0.89989
charge_frag                -0.45826
pol_frag_non-loc x          0.13039
pol_frag_non-loc y          0.33892
pol_frag_non-loc z         -0.87450
 ----------------------------------------------
Hirshfeld fragment: 2 Ag
pol_frag_loc x             25.90785
pol_frag_loc y              4.09079
pol_frag_loc z             -0.52915
charge_frag                11.58094
pol_frag_non-loc x         38.28780
pol_frag_non-loc y         17.21238
pol_frag_non-loc z        -19.48453
 ----------------------------------------------
Hirshfeld fragment: 3 Ag
pol_frag_loc x             14.96900
pol_frag_loc y             -0.17336
pol_frag_loc z             -0.51809
charge_frag                -0.29124
pol_frag_non-loc x          0.08288
pol_frag_non-loc y         -1.28259
pol_frag_non-loc z         -0.31967
 ----------------------------------------------
Hirshfeld fragment: 4 Ag
pol_frag_loc x             26.17115
pol_frag_loc y             -4.15052
pol_frag_loc z             -0.09310
charge_frag               -11.68364
pol_frag_non-loc x         45.27776
pol_frag_non-loc y        -17.36453
pol_frag_non-loc z         19.65578
 ----------------------------------------------
Hirshfeld fragment: 5 Ag
pol_frag_loc x             15.98429
pol_frag_loc y             -0.02755
pol_frag_loc z              0.28063
charge_frag                -0.11844
pol_frag_non-loc x          0.03372
pol_frag_non-loc y         -0.52159
pol_frag_non-loc z          0.52851
 ----------------------------------------------
Hirshfeld fragment: 6 Ag
pol_frag_loc x             21.28060
pol_frag_loc y              6.67907
pol_frag_loc z             -0.22617
charge_frag                -9.67120
pol_frag_non-loc x         29.63804
pol_frag_non-loc y         35.37008
pol_frag_non-loc z         16.27085
 ----------------------------------------------
Hirshfeld fragment: 7 Ag
pol_frag_loc x             10.93704
pol_frag_loc y             -0.04974
pol_frag_loc z              0.42075
charge_frag                -0.24425
pol_frag_non-loc x          0.07676
pol_frag_non-loc y          0.16919
pol_frag_non-loc z          1.29969
 ----------------------------------------------
Hirshfeld fragment: 8 Ag
pol_frag_loc x             20.72102
pol_frag_loc y             -6.33799
pol_frag_loc z             -0.43367
charge_frag                 9.25529
pol_frag_non-loc x         22.67322
pol_frag_non-loc y        -33.74631
pol_frag_non-loc z        -16.22422
 ----------------------------------------------
pol_total x        290.69516
pol_total y         -1.64143
pol_total z         11.20485

    Dipmat_y            
    using first order VWN potential
 
    NOTE: We will NOT use the GGA kernel (input option ALDA was set)
 
 CRIT   1.00000000000000     
 iter.  1 V(1) measure  0.1056874327747E+05
 *** convergence criterion : .1056874E-01
 CRIT   277.608299583293     
 iter.  2 V(1) measure  0.9672060870902E+04
        2        delta  0.8966824065691E+03
 CRIT   86.8482901337382     
 iter.  3 V(1) measure  0.9628768332359E+04
        3        delta  0.4329253854312E+02
 CRIT   42.2629425841940     
 iter.  4 V(1) measure  0.9624177129387E+04
        4        delta  0.4591202972202E+01
 CRIT   19.9627872415092     
 iter.  5 V(1) measure  0.9612991330151E+04
        5        delta  0.1118579923553E+02
 CRIT   4.09605324277488     
 iter.  6 V(1) measure  0.9611780481421E+04
        6        delta  0.1210848730292E+01
 CRIT   2.28744084594184     
 iter.  7 V(1) measure  0.9612353914523E+04
        7        delta  0.5734331013682E+00
 CRIT  0.856564540285932     
 iter.  8 V(1) measure  0.9612553545196E+04
        8        delta  0.1996306737201E+00
 CRIT  0.249072867803805     
 iter.  9 V(1) measure  0.9612546386574E+04
        9        delta  0.7158622280258E-02
 *** convergence reached
 ----------------------------------------------
Hirshfeld fragment: 1 C
pol_frag_loc x              0.87539
pol_frag_loc y              5.85244
pol_frag_loc z             -0.40164
charge_frag                -2.81433
pol_frag_non-loc x         -1.59351
pol_frag_non-loc y          5.30616
pol_frag_non-loc z        -16.79589
 ----------------------------------------------
Hirshfeld fragment: 1 O
pol_frag_loc x             -0.29609
pol_frag_loc y              2.18187
pol_frag_loc z             -0.51453
charge_frag                -0.70622
pol_frag_non-loc x         -1.26119
pol_frag_non-loc y          0.81872
pol_frag_non-loc z         -5.37415
 ----------------------------------------------
Hirshfeld fragment: 1 Ag
pol_frag_loc x              0.25580
pol_frag_loc y              5.94879
pol_frag_loc z             -0.61131
charge_frag                -1.76462
pol_frag_non-loc x          0.50208
pol_frag_non-loc y          1.30507
pol_frag_non-loc z         -3.36739
 ----------------------------------------------
Hirshfeld fragment: 2 Ag
pol_frag_loc x              6.07883
pol_frag_loc y             10.03985
pol_frag_loc z              0.16150
charge_frag                 4.09412
pol_frag_non-loc x         13.53558
pol_frag_non-loc y          6.08495
pol_frag_non-loc z         -6.88821
 ----------------------------------------------
Hirshfeld fragment: 3 Ag
pol_frag_loc x             -0.10121
pol_frag_loc y             22.92824
pol_frag_loc z              9.94301
charge_frag                13.24950
pol_frag_non-loc x         -3.77043
pol_frag_non-loc y         58.34972
pol_frag_non-loc z         14.54294
 ----------------------------------------------
Hirshfeld fragment: 4 Ag
pol_frag_loc x             -6.02145
pol_frag_loc y             10.00490
pol_frag_loc z              0.11121
charge_frag                 4.07307
pol_frag_non-loc x        -15.78442
pol_frag_non-loc y          6.05350
pol_frag_non-loc z         -6.85226
 ----------------------------------------------
Hirshfeld fragment: 5 Ag
pol_frag_loc x              0.01660
pol_frag_loc y             23.93748
pol_frag_loc z            -11.02989
charge_frag                13.59171
pol_frag_non-loc x         -3.86919
pol_frag_non-loc y         59.85755
pol_frag_non-loc z        -60.65110
 ----------------------------------------------
Hirshfeld fragment: 6 Ag
pol_frag_loc x              9.80591
pol_frag_loc y             22.57570
pol_frag_loc z             -0.07830
charge_frag               -12.87064
pol_frag_non-loc x         39.44293
pol_frag_non-loc y         47.07125
pol_frag_non-loc z         21.65359
 ----------------------------------------------
Hirshfeld fragment: 7 Ag
pol_frag_loc x             -0.10481
pol_frag_loc y              9.59599
pol_frag_loc z              6.22937
charge_frag                -4.18180
pol_frag_non-loc x          1.31414
pol_frag_non-loc y          2.89662
pol_frag_non-loc z         22.25182
 ----------------------------------------------
Hirshfeld fragment: 8 Ag
pol_frag_loc x             -9.62178
pol_frag_loc y             22.43690
pol_frag_loc z              0.63450
charge_frag               -12.67125
pol_frag_non-loc x        -31.04150
pol_frag_non-loc y         46.20147
pol_frag_non-loc z         22.21228
 ----------------------------------------------
pol_total x         -1.63845
pol_total y        369.44735
pol_total z        -14.82523

    Dipmat_z            
    using first order VWN potential
 
    NOTE: We will NOT use the GGA kernel (input option ALDA was set)
 
 CRIT   1.00000000000000     
 iter.  1 V(1) measure  0.6674743163700E+04
 *** convergence criterion : .6674743E-02
 CRIT   258.043965839163     
 iter.  2 V(1) measure  0.6117341951111E+04
        2        delta  0.5574012125889E+03
 CRIT   95.7977611764289     
 iter.  3 V(1) measure  0.6050197352413E+04
        3        delta  0.6714459869755E+02
 CRIT   39.9956828779946     
 iter.  4 V(1) measure  0.6045183745560E+04
        4        delta  0.5013606853042E+01
 CRIT   18.6773226082746     
 iter.  5 V(1) measure  0.6042779888304E+04
        5        delta  0.2403857256278E+01
 CRIT   7.37956505053599     
 iter.  6 V(1) measure  0.6041486852254E+04
        6        delta  0.1293036050326E+01
 CRIT   3.41578263304647     
 iter.  7 V(1) measure  0.6042592821445E+04
        7        delta  0.1105969191093E+01
 CRIT   1.43668433525385     
 iter.  8 V(1) measure  0.6043190566215E+04
        8        delta  0.5977447701989E+00
 CRIT  0.422335644881065     
 iter.  9 V(1) measure  0.6043330109508E+04
        9        delta  0.1395432929057E+00
 CRIT  0.169259998504548     
 iter. 10 V(1) measure  0.6043364015414E+04
       10        delta  0.3390590647541E-01
 CRIT  7.971006542456574E-002
 iter. 11 V(1) measure  0.6043381784535E+04
       11        delta  0.1776912046080E-01
 CRIT  2.043067046344006E-002
 iter. 12 V(1) measure  0.6043384824441E+04
       12        delta  0.3039905830519E-02
 *** convergence reached
 ----------------------------------------------
Hirshfeld fragment: 1 C
pol_frag_loc x             -4.15858
pol_frag_loc y             -4.04800
pol_frag_loc z              2.71045
charge_frag                 5.67408
pol_frag_non-loc x          3.21274
pol_frag_non-loc y        -10.69795
pol_frag_non-loc z         33.86283
 ----------------------------------------------
Hirshfeld fragment: 1 O
pol_frag_loc x              1.15890
pol_frag_loc y              0.42346
pol_frag_loc z              4.55871
charge_frag                 6.85204
pol_frag_non-loc x         12.23656
pol_frag_non-loc y         -7.94360
pol_frag_non-loc z         52.14227
 ----------------------------------------------
Hirshfeld fragment: 1 Ag
pol_frag_loc x             -1.32197
pol_frag_loc y              1.06353
pol_frag_loc z              8.45693
charge_frag                 4.92312
pol_frag_non-loc x         -1.40076
pol_frag_non-loc y         -3.64104
pol_frag_non-loc z          9.39472
 ----------------------------------------------
Hirshfeld fragment: 2 Ag
pol_frag_loc x             -1.46136
pol_frag_loc y             -0.06413
pol_frag_loc z              9.35152
charge_frag                -0.77411
pol_frag_non-loc x         -2.55928
pol_frag_non-loc y         -1.15053
pol_frag_non-loc z          1.30241
 ----------------------------------------------
Hirshfeld fragment: 3 Ag
pol_frag_loc x             -0.66530
pol_frag_loc y              5.70037
pol_frag_loc z             18.38541
charge_frag                 8.16455
pol_frag_non-loc x         -2.32340
pol_frag_non-loc y         35.95601
pol_frag_non-loc z          8.96159
 ----------------------------------------------
Hirshfeld fragment: 4 Ag
pol_frag_loc x              1.02311
pol_frag_loc y             -0.29735
pol_frag_loc z             10.45381
charge_frag                -0.53730
pol_frag_non-loc x          2.08219
pol_frag_non-loc y         -0.79854
pol_frag_non-loc z          0.90391
 ----------------------------------------------
Hirshfeld fragment: 5 Ag
pol_frag_loc x              0.34669
pol_frag_loc y             -7.29331
pol_frag_loc z             22.94250
charge_frag                -9.92648
pol_frag_non-loc x          2.82580
pol_frag_non-loc y        -43.71596
pol_frag_non-loc z         44.29552
 ----------------------------------------------
Hirshfeld fragment: 6 Ag
pol_frag_loc x              0.73859
pol_frag_loc y              0.88256
pol_frag_loc z             14.57023
charge_frag                -0.59303
pol_frag_non-loc x          1.81737
pol_frag_non-loc y          2.16885
pol_frag_non-loc z          0.99771
 ----------------------------------------------
Hirshfeld fragment: 7 Ag
pol_frag_loc x              0.33496
pol_frag_loc y              4.11411
pol_frag_loc z             28.30578
charge_frag               -12.52164
pol_frag_non-loc x          3.93494
pol_frag_non-loc y          8.67339
pol_frag_non-loc z         66.62901
 ----------------------------------------------
Hirshfeld fragment: 8 Ag
pol_frag_loc x             -1.53094
pol_frag_loc y              1.24275
pol_frag_loc z             14.24321
charge_frag                -1.26256
pol_frag_non-loc x         -3.09297
pol_frag_non-loc y          4.60351
pol_frag_non-loc z          2.21323
 ----------------------------------------------
pol_total x         11.19692
pol_total y        -14.82138
pol_total z        354.67953
 ------------------------------------------
 Convergence acceleration: T
 POLARIZABILITY                           
 Frequency  =   0.000000000     Hartrees
 Wavelength = infinite nm
 Wavenumber =   0.000000000     cm^{-1}
 Energy     =   0.000000000     eV
 ------------------------------------------
 Polarizability tensor:
                X                   Y                   Z
            290.70068            -1.63739            11.21161
             -1.63195           369.44984           -14.82155
             11.20497           -14.81824           354.68640

 Isotropic        POLARIZABILITY   =      338.28     atomic units



 =======================================================================
 Electrostatic potential at the Nuclei due to electrons and other nuclei
 =======================================================================
  
         Atom                  Potential
         ----                  ---------
     1)   C                  14.63897752
     2)   O                  22.24065436
     3)   Ag                274.24036967
     4)   Ag                274.26403126
     5)   Ag                274.26140820
     6)   Ag                274.26354809
     7)   Ag                274.26464818
     8)   Ag                274.26037190
     9)   Ag                274.26501553
    10)   Ag                274.26016604
 Mulliken charges used for AMS results%charges...


    =====================
     CALCULATION RESULTS
    =====================

Energy (hartree)            -1.07567223


--------------
Atomic charges
--------------
  Index   Atom    Charge
      1      C    0.2756
      2      O   -0.2891
      3     Ag    0.1189
      4     Ag    0.0627
      5     Ag   -0.0728
      6     Ag    0.0603
      7     Ag   -0.0843
      8     Ag   -0.0689
      9     Ag    0.0658
     10     Ag   -0.0682


Dipole moment vector    (Debye):    -0.08156706   -0.31497735    0.27370786
              magnitude (Debye):     0.42518221


AMS application finished. Exiting.
NORMAL TERMINATION
     Total cpu time:      12.11
  Total system time:       1.34
 Total elapsed time:      16.15
