

 Parallel Execution: Process Information
 ==============================================================================
 Rank   Node Name                              NodeID   MyNodeRank  NodeMaster
    0   p-sc-2175                                 0          0          0
    1   p-sc-2175                                 0          1         -1
    2   p-sc-2175                                 0          2         -1
    3   p-sc-2175                                 0          3         -1
    4   p-sc-2175                                 1          0          1
    5   p-sc-2175                                 1          1         -1
    6   p-sc-2175                                 1          2         -1
    7   p-sc-2175                                 1          3         -1
    8   p-sc-2175                                 1          4         -1
    9   p-sc-2175                                 1          5         -1
   10   p-sc-2175                                 1          6         -1
   11   p-sc-2175                                 1          7         -1
   12   p-sc-2175                                 1          8         -1
   13   p-sc-2175                                 1          9         -1
   14   p-sc-2175                                 1         10         -1
   15   p-sc-2175                                 1         11         -1
   16   p-sc-2175                                 2          0          2
   17   p-sc-2175                                 2          1         -1
   18   p-sc-2175                                 2          2         -1
   19   p-sc-2175                                 2          3         -1
 ==============================================================================


May use up to 61522MB of RAM as shared memory on node 0
May use up to 61522MB of RAM as shared memory on node 1
May use up to 61500MB of RAM as shared memory on node 2

 *******************************************************************************
 *                                                                             *
 *  --------------------------------                                           *
 *   Amsterdam Modeling Suite (AMS)              2022.101                      *
 *  --------------------------------                                           *
 *                                               r102085 2022-02-25            *
 *                                                                             *
 *                                                                             *
 *                              =================                              *
 *                              |               |                              *
 *                              |     A M S     |                              *
 *                              |               |                              *
 *                              =================                              *
 *                                                                             *
 *                                                                             *
 *   Online information and documentation:  https://www.scm.com/support/       *
 *   E-mail:  support@scm.com   info@scm.com                                   *
 *                                                                             *
 *   Scientific publications using AMS results must be properly referenced     *
 *   See the User Manuals (or the web site) for recommended citations          *
 *   The terms and conditions of the End User License Agreement apply to       *
 *   the use of AMS, https://www.scm.com/license-terms/                        *
 *                                                                             *
 ***********************  x86_64_linux_intel / openmpi  ************************
 
 Licensed to: Dr. Adri van Duin / Site license Penn State / University Park / PA / USA 2022-08-02 11:39:07
 SCM User ID: u20919
  
 AMS 2022.101  RunTime: Apr23-2023 01:06:20  ShM Nodes: 3  Procs: 20

 AMS jobname: ams
 AMS jobid  : 1606466900

 Start   directory: /scratch/ijc5167/scratch_adf/mode2010.69-paxut/
 Results directory: /scratch/ijc5167/scratch_adf/mode2010.69-paxut/ams.results/
 Scratch directory: /scratch/ijc5167/scratch_adf/mode2010.69-paxut/amstmp_ams_kid0.1606466900/


 Communication costs MPI_COMM_WORLD:      3.580 usec per message,   0.0217 usec per 8-byte item
 Communication costs for intra-node:      1.316 usec per message,   0.0077 usec per 8-byte item

 RNG seed: 1452573023 -278666383 1516235284 -269774709 1637990567 1772717293 1639790424 -1892775339



                     *************************************************************************
                     *  ADF 2022.101  RunTime: Apr23-2023 01:06:20  ShM Nodes: 3  Procs: 20  *
                     *************************************************************************
  
       ****************************
       * SINGLE POINT CALCULATION *
       ****************************
 
--------
Geometry
--------
Formula: CAg8O
Atoms
  Index Symbol   x (angstrom)   y (angstrom)   z (angstrom)
      1      C     0.45623543    -1.19650141     4.05060680
      2      O     1.09204330    -0.81067124     4.91593769
      3     Ag     0.00000035    -0.58891830     1.90012161
      4     Ag     1.90012120     0.58891844     0.00000029
      5     Ag     0.00000026     2.13289850     1.47110820
      6     Ag    -1.90012096     0.58891837     0.00000071
      7     Ag    -0.00000007     2.13289841    -1.47110730
      8     Ag    -1.47110759    -2.13289843     0.00000075
      9     Ag    -0.01565968    -0.56413541    -1.92550891
     10     Ag     1.44694835    -2.12704565    -0.03728801
 
Total System Charge             0.00000
 
 
----------------
ADF Engine Input
----------------
 
 Relativity
 Level Scalar
 End
 AORESPONSE
 ALDA True
 HIRSHPOL True
 el_dipole_el_dipole
 end
 basis
 Type TZP
 core Large
 end
 symmetry nosym
 numericalquality Normal
 xc
 GGA Becke88 Perdew86
 DISPERSION Grimme3 BJDAMP
 end
 

 Title: *** (NO TITLE) ***

 *** adf ***



 ===========================
 A T T A C H E D   F I L E S
 ===========================
  



 ===============================
 M O D E L   P A R A M E T E R S
 ===============================
  
 DENSITY FUNCTIONAL POTENTIAL (scf)
    LDA:                               VWN                                      
    Gradient Corrections:              Becke88 Perdew86                        == Not Default ==

 SPIN  (restricted / unrestr.)
    Molecule:                          Restricted                               
    Fragments:                         Restricted                               

 OTHER ASPECTS
    Relativistic Corrections:          scalar (ZORA,MAPA)                       

    Nuclear Charge Density Model:      Point Charge Nuclei                      
    Core Treatment:                    Frozen Orbital(s)                        

    Hyperfine or Zeeman Interaction:   ---                                      

 Settings for Grimme D3 dispersion correction

      damping                        BJ
      s6                          1.000
      s8                          3.282
      a1                          0.395
      a2                          4.852

 Other (technical) parameters

      alpha                      14.000
      version                         4
 


 Fragment File(s)
 ----------------
 C:
         file : /scratch/ijc5167/scratch_adf/mode2010.69-paxut/ams.results/t21.12976890.C
         jobid: 0
         title: Carbon (TZP, 1s frozen)
 O:
         file : /scratch/ijc5167/scratch_adf/mode2010.69-paxut/ams.results/t21.5B67203B.O
         jobid: 0
         title: Oxygen (TZP, 1s frozen)
 Ag:
         file : /scratch/ijc5167/scratch_adf/mode2010.69-paxut/ams.results/t21.4039B022.Ag
         jobid: 0
         title: Silver (TZP, 4p frozen)



 ===============
 G E O M E T R Y  ***  3D  Molecule  ***
 ===============
  

 ATOMS
 =====                            X Y Z                    CHARGE
                                (Angstrom)             Nucl     +Core       At.Mass
                       --------------------------    ----------------       -------
    1  C               0.4562   -1.1965    4.0506      6.00      4.00       12.0000
    2  O               1.0920   -0.8107    4.9159      8.00      6.00       15.9949
    3  Ag              0.0000   -0.5889    1.9001     47.00     11.00      106.9051
    4  Ag              1.9001    0.5889    0.0000     47.00     11.00      106.9051
    5  Ag              0.0000    2.1329    1.4711     47.00     11.00      106.9051
    6  Ag             -1.9001    0.5889    0.0000     47.00     11.00      106.9051
    7  Ag             -0.0000    2.1329   -1.4711     47.00     11.00      106.9051
    8  Ag             -1.4711   -2.1329    0.0000     47.00     11.00      106.9051
    9  Ag             -0.0157   -0.5641   -1.9255     47.00     11.00      106.9051
   10  Ag              1.4469   -2.1270   -0.0373     47.00     11.00      106.9051


 FRAGMENTS
 =========                                     Atoms in this Fragment     Cart. coord.s (Angstrom)
                                               -------------------------------------------------------
    1  C                                                 1  C            0.4562   -1.1965    4.0506
    2  O                                                 2  O            1.0920   -0.8107    4.9159
    3  Ag                                                3  Ag           0.0000   -0.5889    1.9001
    4  Ag                                                4  Ag           1.9001    0.5889    0.0000
    5  Ag                                                5  Ag           0.0000    2.1329    1.4711
    6  Ag                                                6  Ag          -1.9001    0.5889    0.0000
    7  Ag                                                7  Ag          -0.0000    2.1329   -1.4711
    8  Ag                                                8  Ag          -1.4711   -2.1329    0.0000
    9  Ag                                                9  Ag          -0.0157   -0.5641   -1.9255
   10  Ag                                               10  Ag           1.4469   -2.1270   -0.0373


 Interatomic Distance Matrix (Angstrom)
 --------------------------------------

   1)     0.000
   2)     1.141   0.000
   3)     2.281   3.215   0.000
   4)     4.656   5.175   2.934   0.000
   5)     4.236   4.661   2.755   2.856   0.000
   6)     5.015   5.923   2.934   3.800   2.856   0.000
   7)     6.464   7.117   4.333   2.856   2.942   2.856   0.000
   8)     4.582   5.700   2.856   4.333   4.746   2.755   4.746   0.000
   9)     6.028   6.935   3.826   2.951   4.337   2.931   2.735   2.879   0.000
  10)     4.308   5.137   2.866   2.754   4.745   4.311   4.722   2.918   2.854   0.000

 Min. Distance =    1.1410
 Max. Distance =    7.1170



 =====================================
 S Y M M E T R Y ,   E L E C T R O N S
 =====================================
  
 Symmetry: NOSYM

 Irreducible Representations, including subspecies
 -------------------------------------------------
 A


 Configuration of Valence Electrons
 ==================================
 ( determined in the SCF procedure )

 Total:   98

 Net Charge: 0 (Nuclei minus Electrons)

 Aufbau principle for MO occupations will be applied through SCF cycle no.     150
 Thereafter, the program will assign electrons to MOs that are spatially
 similar to the occupied MOs in a "reference" cycle ("KeepOrbitals").
 The reference cycle is always the PREVIOUS cycle: it will evolve with
 the SCF procedure.
1
 ***************************************************************************************************



                                      ****************************************
                                      *  B U I L D : (Fragments, Functions)  *
                                      ****************************************
  



 =======
 S F O s  ***  (Symmetrized Fragment Orbitals)  ***
 =======
  
 SFOs are linear combinations of (valence) Fragment Orbitals (FOs), such that the SFOs transform as the
 irreducible representations of the (molecular) symmetry group. Each SFO is therefore characterized by
 an irrep of the molecule and by a few (or only one) generating FOs.
 The SFOs constitute a symmetry-adapted basis for the Fock matrix. The MO eigenvector coefficients in
 this basis provide a direct interpretation of the MOs in terms of Frontier Orbital Theory.

 The SFOs are combined with auxiliary Core Functions (CFs) to ensure orthogonalization on the (frozen)
 Core Orbitals (COs). The Core-orthogonalized SFOs (CSFOs) constitute the true Fock basis.

 The FOs, and hence also the (C)SFOs are combinations of the elementary basis functions (BAS). The basis
 functions that participate in the description of the SFOs depend on the irrep. The indices of the
 involved functions are printed below for each irrep.
 (The complete list of primitive basis functions is printed in another section)

 Total nr. of (C)SFOs (summation over all irreps) :   202

 NOTE: a (C)SFO that is defined as a combination of more than one FO is usually NOT normalized.



                                       === A ===
 Nr. of SFOs :  202
 Cartesian basis functions that participate in this irrep (total number =   382) :
      1    20    39    40    41    42    43    46    49    44
     47    50    45    48    51    52    53    54    55    56
     57    82    83    84    85    86    89    92    87    90
     93    88    91    94    95    96    97    98    99   100
    125   126   127   128   129   132   135   130   133   136
    131   134   137   138   139   140   141   142   143   168
    169   170   171   172   175   178   173   176   179   174
    177   180   181   182   183   184   185   186   211   212
    213   214   215   218   221   216   219   222   217   220
    223   224   225   226   227   228   229   254   255   256
    257   258   261   264   259   262   265   260   263   266
    267   268   269   270   271   272   297   298   299   300
    301   304   307   302   305   308   303   306   309   310
    311   312   313   314   315   340   341   342   343   344
    347   350   345   348   351   346   349   352   353   354
    355   356   357   358     2     3     4     5     8    11
      6     9    12     7    10    13    14    15    16    17
     18    19    21    22    23    24    27    30    25    28
     31    26    29    32    33    34    35    36    37    38
     58    59    60    79    80    81    61    67    73    62
     68    74    63    69    75    64    70    76    65    71
     77    66    72    78   101   102   103   122   123   124
    104   110   116   105   111   117   106   112   118   107
    113   119   108   114   120   109   115   121   144   145
    146   165   166   167   147   153   159   148   154   160
    149   155   161   150   156   162   151   157   163   152
    158   164   187   188   189   208   209   210   190   196
    202   191   197   203   192   198   204   193   199   205
    194   200   206   195   201   207   230   231   232   251
    252   253   233   239   245   234   240   246   235   241
    247   236   242   248   237   243   249   238   244   250
    273   274   275   294   295   296   276   282   288   277
    283   289   278   284   290   279   285   291   280   286
    292   281   287   293   316   317   318   337   338   339
    319   325   331   320   326   332   321   327   333   322
    328   334   323   329   335   324   330   336   359   360
    361   380   381   382   362   368   374   363   369   375
    364   370   376   365   371   377   366   372   378   367
    373   379

    SFO  (index         Fragment          Generating    Expansion in Fragment Orbitals
  indx  incl.CFs)   Occup   Orb.Energy   FragmentType  Coeff.   Orbital     on Fragment
 --------------------------------------------------------------------------------------
     1     155      2.000      -0.511 au  C             1.00      1 S               1
                        (     -13.915 eV)
     2     156       --         0.428 au  C             1.00      2 S               1
                        (      11.654 eV)
     3     157       --         9.927 au  C             1.00      3 S               1
                        (     270.139 eV)
     4     158      0.667      -0.199 au  C             1.00      1 P:x             1
                        (      -5.426 eV)
     5     159       --         0.173 au  C             1.00      2 P:x             1
                        (       4.695 eV)
     6     160       --         2.022 au  C             1.00      3 P:x             1
                        (      55.030 eV)
     7     161      0.667      -0.199 au  C             1.00      1 P:y             1
                        (      -5.426 eV)
     8     162       --         0.173 au  C             1.00      2 P:y             1
                        (       4.695 eV)
     9     163       --         2.022 au  C             1.00      3 P:y             1
                        (      55.030 eV)
    10     164      0.667      -0.199 au  C             1.00      1 P:z             1
                        (      -5.426 eV)
    11     165       --         0.173 au  C             1.00      2 P:z             1
                        (       4.695 eV)
    12     166       --         2.022 au  C             1.00      3 P:z             1
                        (      55.030 eV)
    13     167       --         1.231 au  C             1.00      1 D:z2            1
                        (      33.508 eV)
    14     168       --         1.231 au  C             1.00      1 D:x2-y2         1
                        (      33.508 eV)
    15     169       --         1.231 au  C             1.00      1 D:xy            1
                        (      33.508 eV)
    16     170       --         1.231 au  C             1.00      1 D:xz            1
                        (      33.508 eV)
    17     171       --         1.231 au  C             1.00      1 D:yz            1
                        (      33.508 eV)
    18     172      2.000      -0.887 au  O             1.00      1 S               2
                        (     -24.141 eV)
    19     173       --         0.898 au  O             1.00      2 S               2
                        (      24.443 eV)
    20     174       --        29.557 au  O             1.00      3 S               2
                        (     804.274 eV)
    21     175      1.333      -0.338 au  O             1.00      1 P:x             2
                        (      -9.204 eV)
    22     176       --         0.354 au  O             1.00      2 P:x             2
                        (       9.644 eV)
    23     177       --         3.829 au  O             1.00      3 P:x             2
                        (     104.202 eV)
    24     178      1.333      -0.338 au  O             1.00      1 P:y             2
                        (      -9.204 eV)
    25     179       --         0.354 au  O             1.00      2 P:y             2
                        (       9.644 eV)
    26     180       --         3.829 au  O             1.00      3 P:y             2
                        (     104.202 eV)
    27     181      1.333      -0.338 au  O             1.00      1 P:z             2
                        (      -9.204 eV)
    28     182       --         0.354 au  O             1.00      2 P:z             2
                        (       9.644 eV)
    29     183       --         3.829 au  O             1.00      3 P:z             2
                        (     104.202 eV)
    30     184       --         1.061 au  O             1.00      1 D:z2            2
                        (      28.861 eV)
    31     185       --         1.061 au  O             1.00      1 D:x2-y2         2
                        (      28.861 eV)
    32     186       --         1.061 au  O             1.00      1 D:xy            2
                        (      28.861 eV)
    33     187       --         1.061 au  O             1.00      1 D:xz            2
                        (      28.861 eV)
    34     188       --         1.061 au  O             1.00      1 D:yz            2
                        (      28.861 eV)
    35     189      1.000      -0.167 au  Ag            1.00      1 S               3
                        (      -4.550 eV)
    36     190       --         0.050 au  Ag            1.00      2 S               3
                        (       1.356 eV)
    37     191       --         0.590 au  Ag            1.00      3 S               3
                        (      16.061 eV)
    38     192       --         0.013 au  Ag            1.00      1 P:x             3
                        (       0.354 eV)
    39     193       --         0.013 au  Ag            1.00      1 P:y             3
                        (       0.354 eV)
    40     194       --         0.013 au  Ag            1.00      1 P:z             3
                        (       0.354 eV)
    41     195      2.000      -0.277 au  Ag            1.00      1 D:z2            3
                        (      -7.546 eV)
    42     196       --         0.294 au  Ag            1.00      2 D:z2            3
                        (       8.000 eV)
    43     197       --         2.230 au  Ag            1.00      3 D:z2            3
                        (      60.692 eV)
    44     198      2.000      -0.277 au  Ag            1.00      1 D:x2-y2         3
                        (      -7.546 eV)
    45     199       --         0.294 au  Ag            1.00      2 D:x2-y2         3
                        (       8.000 eV)
    46     200       --         2.230 au  Ag            1.00      3 D:x2-y2         3
                        (      60.692 eV)
    47     201      2.000      -0.277 au  Ag            1.00      1 D:xy            3
                        (      -7.546 eV)
    48     202       --         0.294 au  Ag            1.00      2 D:xy            3
                        (       8.000 eV)
    49     203       --         2.230 au  Ag            1.00      3 D:xy            3
                        (      60.692 eV)
    50     204      2.000      -0.277 au  Ag            1.00      1 D:xz            3
                        (      -7.546 eV)
    51     205       --         0.294 au  Ag            1.00      2 D:xz            3
                        (       8.000 eV)
    52     206       --         2.230 au  Ag            1.00      3 D:xz            3
                        (      60.692 eV)
    53     207      2.000      -0.277 au  Ag            1.00      1 D:yz            3
                        (      -7.546 eV)
    54     208       --         0.294 au  Ag            1.00      2 D:yz            3
                        (       8.000 eV)
    55     209       --         2.230 au  Ag            1.00      3 D:yz            3
                        (      60.692 eV)
    56     210      1.000      -0.167 au  Ag            1.00      1 S               4
                        (      -4.550 eV)
    57     211       --         0.050 au  Ag            1.00      2 S               4
                        (       1.356 eV)
    58     212       --         0.590 au  Ag            1.00      3 S               4
                        (      16.061 eV)
    59     213       --         0.013 au  Ag            1.00      1 P:x             4
                        (       0.354 eV)
    60     214       --         0.013 au  Ag            1.00      1 P:y             4
                        (       0.354 eV)
    61     215       --         0.013 au  Ag            1.00      1 P:z             4
                        (       0.354 eV)
    62     216      2.000      -0.277 au  Ag            1.00      1 D:z2            4
                        (      -7.546 eV)
    63     217       --         0.294 au  Ag            1.00      2 D:z2            4
                        (       8.000 eV)
    64     218       --         2.230 au  Ag            1.00      3 D:z2            4
                        (      60.692 eV)
    65     219      2.000      -0.277 au  Ag            1.00      1 D:x2-y2         4
                        (      -7.546 eV)
    66     220       --         0.294 au  Ag            1.00      2 D:x2-y2         4
                        (       8.000 eV)
    67     221       --         2.230 au  Ag            1.00      3 D:x2-y2         4
                        (      60.692 eV)
    68     222      2.000      -0.277 au  Ag            1.00      1 D:xy            4
                        (      -7.546 eV)
    69     223       --         0.294 au  Ag            1.00      2 D:xy            4
                        (       8.000 eV)
    70     224       --         2.230 au  Ag            1.00      3 D:xy            4
                        (      60.692 eV)
    71     225      2.000      -0.277 au  Ag            1.00      1 D:xz            4
                        (      -7.546 eV)
    72     226       --         0.294 au  Ag            1.00      2 D:xz            4
                        (       8.000 eV)
    73     227       --         2.230 au  Ag            1.00      3 D:xz            4
                        (      60.692 eV)
    74     228      2.000      -0.277 au  Ag            1.00      1 D:yz            4
                        (      -7.546 eV)
    75     229       --         0.294 au  Ag            1.00      2 D:yz            4
                        (       8.000 eV)
    76     230       --         2.230 au  Ag            1.00      3 D:yz            4
                        (      60.692 eV)
    77     231      1.000      -0.167 au  Ag            1.00      1 S               5
                        (      -4.550 eV)
    78     232       --         0.050 au  Ag            1.00      2 S               5
                        (       1.356 eV)
    79     233       --         0.590 au  Ag            1.00      3 S               5
                        (      16.061 eV)
    80     234       --         0.013 au  Ag            1.00      1 P:x             5
                        (       0.354 eV)
    81     235       --         0.013 au  Ag            1.00      1 P:y             5
                        (       0.354 eV)
    82     236       --         0.013 au  Ag            1.00      1 P:z             5
                        (       0.354 eV)
    83     237      2.000      -0.277 au  Ag            1.00      1 D:z2            5
                        (      -7.546 eV)
    84     238       --         0.294 au  Ag            1.00      2 D:z2            5
                        (       8.000 eV)
    85     239       --         2.230 au  Ag            1.00      3 D:z2            5
                        (      60.692 eV)
    86     240      2.000      -0.277 au  Ag            1.00      1 D:x2-y2         5
                        (      -7.546 eV)
    87     241       --         0.294 au  Ag            1.00      2 D:x2-y2         5
                        (       8.000 eV)
    88     242       --         2.230 au  Ag            1.00      3 D:x2-y2         5
                        (      60.692 eV)
    89     243      2.000      -0.277 au  Ag            1.00      1 D:xy            5
                        (      -7.546 eV)
    90     244       --         0.294 au  Ag            1.00      2 D:xy            5
                        (       8.000 eV)
    91     245       --         2.230 au  Ag            1.00      3 D:xy            5
                        (      60.692 eV)
    92     246      2.000      -0.277 au  Ag            1.00      1 D:xz            5
                        (      -7.546 eV)
    93     247       --         0.294 au  Ag            1.00      2 D:xz            5
                        (       8.000 eV)
    94     248       --         2.230 au  Ag            1.00      3 D:xz            5
                        (      60.692 eV)
    95     249      2.000      -0.277 au  Ag            1.00      1 D:yz            5
                        (      -7.546 eV)
    96     250       --         0.294 au  Ag            1.00      2 D:yz            5
                        (       8.000 eV)
    97     251       --         2.230 au  Ag            1.00      3 D:yz            5
                        (      60.692 eV)
    98     252      1.000      -0.167 au  Ag            1.00      1 S               6
                        (      -4.550 eV)
    99     253       --         0.050 au  Ag            1.00      2 S               6
                        (       1.356 eV)
   100     254       --         0.590 au  Ag            1.00      3 S               6
                        (      16.061 eV)
   101     255       --         0.013 au  Ag            1.00      1 P:x             6
                        (       0.354 eV)
   102     256       --         0.013 au  Ag            1.00      1 P:y             6
                        (       0.354 eV)
   103     257       --         0.013 au  Ag            1.00      1 P:z             6
                        (       0.354 eV)
   104     258      2.000      -0.277 au  Ag            1.00      1 D:z2            6
                        (      -7.546 eV)
   105     259       --         0.294 au  Ag            1.00      2 D:z2            6
                        (       8.000 eV)
   106     260       --         2.230 au  Ag            1.00      3 D:z2            6
                        (      60.692 eV)
   107     261      2.000      -0.277 au  Ag            1.00      1 D:x2-y2         6
                        (      -7.546 eV)
   108     262       --         0.294 au  Ag            1.00      2 D:x2-y2         6
                        (       8.000 eV)
   109     263       --         2.230 au  Ag            1.00      3 D:x2-y2         6
                        (      60.692 eV)
   110     264      2.000      -0.277 au  Ag            1.00      1 D:xy            6
                        (      -7.546 eV)
   111     265       --         0.294 au  Ag            1.00      2 D:xy            6
                        (       8.000 eV)
   112     266       --         2.230 au  Ag            1.00      3 D:xy            6
                        (      60.692 eV)
   113     267      2.000      -0.277 au  Ag            1.00      1 D:xz            6
                        (      -7.546 eV)
   114     268       --         0.294 au  Ag            1.00      2 D:xz            6
                        (       8.000 eV)
   115     269       --         2.230 au  Ag            1.00      3 D:xz            6
                        (      60.692 eV)
   116     270      2.000      -0.277 au  Ag            1.00      1 D:yz            6
                        (      -7.546 eV)
   117     271       --         0.294 au  Ag            1.00      2 D:yz            6
                        (       8.000 eV)
   118     272       --         2.230 au  Ag            1.00      3 D:yz            6
                        (      60.692 eV)
   119     273      1.000      -0.167 au  Ag            1.00      1 S               7
                        (      -4.550 eV)
   120     274       --         0.050 au  Ag            1.00      2 S               7
                        (       1.356 eV)
   121     275       --         0.590 au  Ag            1.00      3 S               7
                        (      16.061 eV)
   122     276       --         0.013 au  Ag            1.00      1 P:x             7
                        (       0.354 eV)
   123     277       --         0.013 au  Ag            1.00      1 P:y             7
                        (       0.354 eV)
   124     278       --         0.013 au  Ag            1.00      1 P:z             7
                        (       0.354 eV)
   125     279      2.000      -0.277 au  Ag            1.00      1 D:z2            7
                        (      -7.546 eV)
   126     280       --         0.294 au  Ag            1.00      2 D:z2            7
                        (       8.000 eV)
   127     281       --         2.230 au  Ag            1.00      3 D:z2            7
                        (      60.692 eV)
   128     282      2.000      -0.277 au  Ag            1.00      1 D:x2-y2         7
                        (      -7.546 eV)
   129     283       --         0.294 au  Ag            1.00      2 D:x2-y2         7
                        (       8.000 eV)
   130     284       --         2.230 au  Ag            1.00      3 D:x2-y2         7
                        (      60.692 eV)
   131     285      2.000      -0.277 au  Ag            1.00      1 D:xy            7
                        (      -7.546 eV)
   132     286       --         0.294 au  Ag            1.00      2 D:xy            7
                        (       8.000 eV)
   133     287       --         2.230 au  Ag            1.00      3 D:xy            7
                        (      60.692 eV)
   134     288      2.000      -0.277 au  Ag            1.00      1 D:xz            7
                        (      -7.546 eV)
   135     289       --         0.294 au  Ag            1.00      2 D:xz            7
                        (       8.000 eV)
   136     290       --         2.230 au  Ag            1.00      3 D:xz            7
                        (      60.692 eV)
   137     291      2.000      -0.277 au  Ag            1.00      1 D:yz            7
                        (      -7.546 eV)
   138     292       --         0.294 au  Ag            1.00      2 D:yz            7
                        (       8.000 eV)
   139     293       --         2.230 au  Ag            1.00      3 D:yz            7
                        (      60.692 eV)
   140     294      1.000      -0.167 au  Ag            1.00      1 S               8
                        (      -4.550 eV)
   141     295       --         0.050 au  Ag            1.00      2 S               8
                        (       1.356 eV)
   142     296       --         0.590 au  Ag            1.00      3 S               8
                        (      16.061 eV)
   143     297       --         0.013 au  Ag            1.00      1 P:x             8
                        (       0.354 eV)
   144     298       --         0.013 au  Ag            1.00      1 P:y             8
                        (       0.354 eV)
   145     299       --         0.013 au  Ag            1.00      1 P:z             8
                        (       0.354 eV)
   146     300      2.000      -0.277 au  Ag            1.00      1 D:z2            8
                        (      -7.546 eV)
   147     301       --         0.294 au  Ag            1.00      2 D:z2            8
                        (       8.000 eV)
   148     302       --         2.230 au  Ag            1.00      3 D:z2            8
                        (      60.692 eV)
   149     303      2.000      -0.277 au  Ag            1.00      1 D:x2-y2         8
                        (      -7.546 eV)
   150     304       --         0.294 au  Ag            1.00      2 D:x2-y2         8
                        (       8.000 eV)
   151     305       --         2.230 au  Ag            1.00      3 D:x2-y2         8
                        (      60.692 eV)
   152     306      2.000      -0.277 au  Ag            1.00      1 D:xy            8
                        (      -7.546 eV)
   153     307       --         0.294 au  Ag            1.00      2 D:xy            8
                        (       8.000 eV)
   154     308       --         2.230 au  Ag            1.00      3 D:xy            8
                        (      60.692 eV)
   155     309      2.000      -0.277 au  Ag            1.00      1 D:xz            8
                        (      -7.546 eV)
   156     310       --         0.294 au  Ag            1.00      2 D:xz            8
                        (       8.000 eV)
   157     311       --         2.230 au  Ag            1.00      3 D:xz            8
                        (      60.692 eV)
   158     312      2.000      -0.277 au  Ag            1.00      1 D:yz            8
                        (      -7.546 eV)
   159     313       --         0.294 au  Ag            1.00      2 D:yz            8
                        (       8.000 eV)
   160     314       --         2.230 au  Ag            1.00      3 D:yz            8
                        (      60.692 eV)
   161     315      1.000      -0.167 au  Ag            1.00      1 S               9
                        (      -4.550 eV)
   162     316       --         0.050 au  Ag            1.00      2 S               9
                        (       1.356 eV)
   163     317       --         0.590 au  Ag            1.00      3 S               9
                        (      16.061 eV)
   164     318       --         0.013 au  Ag            1.00      1 P:x             9
                        (       0.354 eV)
   165     319       --         0.013 au  Ag            1.00      1 P:y             9
                        (       0.354 eV)
   166     320       --         0.013 au  Ag            1.00      1 P:z             9
                        (       0.354 eV)
   167     321      2.000      -0.277 au  Ag            1.00      1 D:z2            9
                        (      -7.546 eV)
   168     322       --         0.294 au  Ag            1.00      2 D:z2            9
                        (       8.000 eV)
   169     323       --         2.230 au  Ag            1.00      3 D:z2            9
                        (      60.692 eV)
   170     324      2.000      -0.277 au  Ag            1.00      1 D:x2-y2         9
                        (      -7.546 eV)
   171     325       --         0.294 au  Ag            1.00      2 D:x2-y2         9
                        (       8.000 eV)
   172     326       --         2.230 au  Ag            1.00      3 D:x2-y2         9
                        (      60.692 eV)
   173     327      2.000      -0.277 au  Ag            1.00      1 D:xy            9
                        (      -7.546 eV)
   174     328       --         0.294 au  Ag            1.00      2 D:xy            9
                        (       8.000 eV)
   175     329       --         2.230 au  Ag            1.00      3 D:xy            9
                        (      60.692 eV)
   176     330      2.000      -0.277 au  Ag            1.00      1 D:xz            9
                        (      -7.546 eV)
   177     331       --         0.294 au  Ag            1.00      2 D:xz            9
                        (       8.000 eV)
   178     332       --         2.230 au  Ag            1.00      3 D:xz            9
                        (      60.692 eV)
   179     333      2.000      -0.277 au  Ag            1.00      1 D:yz            9
                        (      -7.546 eV)
   180     334       --         0.294 au  Ag            1.00      2 D:yz            9
                        (       8.000 eV)
   181     335       --         2.230 au  Ag            1.00      3 D:yz            9
                        (      60.692 eV)
   182     336      1.000      -0.167 au  Ag            1.00      1 S              10
                        (      -4.550 eV)
   183     337       --         0.050 au  Ag            1.00      2 S              10
                        (       1.356 eV)
   184     338       --         0.590 au  Ag            1.00      3 S              10
                        (      16.061 eV)
   185     339       --         0.013 au  Ag            1.00      1 P:x            10
                        (       0.354 eV)
   186     340       --         0.013 au  Ag            1.00      1 P:y            10
                        (       0.354 eV)
   187     341       --         0.013 au  Ag            1.00      1 P:z            10
                        (       0.354 eV)
   188     342      2.000      -0.277 au  Ag            1.00      1 D:z2           10
                        (      -7.546 eV)
   189     343       --         0.294 au  Ag            1.00      2 D:z2           10
                        (       8.000 eV)
   190     344       --         2.230 au  Ag            1.00      3 D:z2           10
                        (      60.692 eV)
   191     345      2.000      -0.277 au  Ag            1.00      1 D:x2-y2        10
                        (      -7.546 eV)
   192     346       --         0.294 au  Ag            1.00      2 D:x2-y2        10
                        (       8.000 eV)
   193     347       --         2.230 au  Ag            1.00      3 D:x2-y2        10
                        (      60.692 eV)
   194     348      2.000      -0.277 au  Ag            1.00      1 D:xy           10
                        (      -7.546 eV)
   195     349       --         0.294 au  Ag            1.00      2 D:xy           10
                        (       8.000 eV)
   196     350       --         2.230 au  Ag            1.00      3 D:xy           10
                        (      60.692 eV)
   197     351      2.000      -0.277 au  Ag            1.00      1 D:xz           10
                        (      -7.546 eV)
   198     352       --         0.294 au  Ag            1.00      2 D:xz           10
                        (       8.000 eV)
   199     353       --         2.230 au  Ag            1.00      3 D:xz           10
                        (      60.692 eV)
   200     354      2.000      -0.277 au  Ag            1.00      1 D:yz           10
                        (      -7.546 eV)
   201     355       --         0.294 au  Ag            1.00      2 D:yz           10
                        (       8.000 eV)
   202     356       --         2.230 au  Ag            1.00      3 D:yz           10
                        (      60.692 eV)



 ================================
 (Slater-type)  F U N C T I O N S  ***  (Basis and Fit)  ***
 ================================
  

 Atom Type    1  (C)
 ==============

 Valence Basis Sets:   8
 -----------------------
   1 S    5.400000
   2 S    1.280000
   2 S    2.100000
   2 S    4.600000
   2 P    0.820000
   2 P    1.480000
   2 P    2.940000
   3 D    2.200000

 Frozen Core Shells
 ------------------
    S:  1

 Atom Type    2  (O)
 ==============

 Valence Basis Sets:   8
 -----------------------
   1 S    7.360000
   2 S    1.720000
   2 S    2.880000
   2 S    7.580000
   2 P    1.120000
   2 P    2.080000
   2 P    4.080000
   3 D    2.000000

 Frozen Core Shells
 ------------------
    S:  1

 Atom Type    3  (Ag)
 ==============

 Valence Basis Sets:  15
 -----------------------
   1 S   30.800000
   2 S   20.300000
   3 S    9.550000
   4 S    5.950000
   2 P   21.100000
   3 P   10.100000
   4 P    4.450000
   3 D   11.650000
   5 S    2.600000
   5 S    1.550000
   5 S    0.950000
   4 D    4.750000
   4 D    2.600000
   4 D    1.380000
   5 P    1.550000

 Frozen Core Shells
 ------------------
    S:  4
    P:  3
    D:  1


 BAS: List of all Elementary Cartesian Basis Functions
 =====================================================

 The numbering in the list below (to the right of the function characteristics) is referred
 to in print-outs of MO eigenvectors and Mulliken populations in the BAS representation
 (as contrasted to the SFO representation).

 Notes:
 1. The functions are characterized by a polynomial prefactor (powers of x,y,z and r) and
    an exponential decay factor alpha.
 2. Since the basis sets are specific for an atom TYPE, the individual functions occur on
    all atoms of that type.
 3. The word 'Core' in the left margin signals that it is a Core Function (CF) : not a
    degree of freedom in the valence set, but only used to ensure orthogonalization of
    the other valence basis functions on the frozen Core Orbitals.


 (power of) X  Y  Z  R     Alpha  on Atom
            ==========     =====     ==========

 C                                    1
                                  ---------------------------------------------------------------------------
    Core    0  0  0  0     5.400      1
            0  0  0  1     1.280      2
            0  0  0  1     2.100      3
            0  0  0  1     4.600      4
            1  0  0  0     0.820      5
            0  1  0  0     0.820      6
            0  0  1  0     0.820      7
            1  0  0  0     1.480      8
            0  1  0  0     1.480      9
            0  0  1  0     1.480     10
            1  0  0  0     2.940     11
            0  1  0  0     2.940     12
            0  0  1  0     2.940     13
            2  0  0  0     2.200     14
            1  1  0  0     2.200     15
            1  0  1  0     2.200     16
            0  2  0  0     2.200     17
            0  1  1  0     2.200     18
            0  0  2  0     2.200     19

 O                                    2
                                  ---------------------------------------------------------------------------
    Core    0  0  0  0     7.360     20
            0  0  0  1     1.720     21
            0  0  0  1     2.880     22
            0  0  0  1     7.580     23
            1  0  0  0     1.120     24
            0  1  0  0     1.120     25
            0  0  1  0     1.120     26
            1  0  0  0     2.080     27
            0  1  0  0     2.080     28
            0  0  1  0     2.080     29
            1  0  0  0     4.080     30
            0  1  0  0     4.080     31
            0  0  1  0     4.080     32
            2  0  0  0     2.000     33
            1  1  0  0     2.000     34
            1  0  1  0     2.000     35
            0  2  0  0     2.000     36
            0  1  1  0     2.000     37
            0  0  2  0     2.000     38

 Ag                                   3    4    5    6    7    8    9   10
                                  ---------------------------------------------------------------------------
    Core    0  0  0  0    30.800     39   82  125  168  211  254  297  340
    Core    0  0  0  1    20.300     40   83  126  169  212  255  298  341
    Core    0  0  0  2     9.550     41   84  127  170  213  256  299  342
    Core    0  0  0  3     5.950     42   85  128  171  214  257  300  343
    Core    1  0  0  0    21.100     43   86  129  172  215  258  301  344
    Core    0  1  0  0    21.100     44   87  130  173  216  259  302  345
    Core    0  0  1  0    21.100     45   88  131  174  217  260  303  346
    Core    1  0  0  1    10.100     46   89  132  175  218  261  304  347
    Core    0  1  0  1    10.100     47   90  133  176  219  262  305  348
    Core    0  0  1  1    10.100     48   91  134  177  220  263  306  349
    Core    1  0  0  2     4.450     49   92  135  178  221  264  307  350
    Core    0  1  0  2     4.450     50   93  136  179  222  265  308  351
    Core    0  0  1  2     4.450     51   94  137  180  223  266  309  352
    Core    2  0  0  0    11.650     52   95  138  181  224  267  310  353
    Core    1  1  0  0    11.650     53   96  139  182  225  268  311  354
    Core    1  0  1  0    11.650     54   97  140  183  226  269  312  355
    Core    0  2  0  0    11.650     55   98  141  184  227  270  313  356
    Core    0  1  1  0    11.650     56   99  142  185  228  271  314  357
    Core    0  0  2  0    11.650     57  100  143  186  229  272  315  358
            0  0  0  4     2.600     58  101  144  187  230  273  316  359
            0  0  0  4     1.550     59  102  145  188  231  274  317  360
            0  0  0  4     0.950     60  103  146  189  232  275  318  361
            2  0  0  1     4.750     61  104  147  190  233  276  319  362
            1  1  0  1     4.750     62  105  148  191  234  277  320  363
            1  0  1  1     4.750     63  106  149  192  235  278  321  364
            0  2  0  1     4.750     64  107  150  193  236  279  322  365
            0  1  1  1     4.750     65  108  151  194  237  280  323  366
            0  0  2  1     4.750     66  109  152  195  238  281  324  367
            2  0  0  1     2.600     67  110  153  196  239  282  325  368
            1  1  0  1     2.600     68  111  154  197  240  283  326  369
            1  0  1  1     2.600     69  112  155  198  241  284  327  370
            0  2  0  1     2.600     70  113  156  199  242  285  328  371
            0  1  1  1     2.600     71  114  157  200  243  286  329  372
            0  0  2  1     2.600     72  115  158  201  244  287  330  373
            2  0  0  1     1.380     73  116  159  202  245  288  331  374
            1  1  0  1     1.380     74  117  160  203  246  289  332  375
            1  0  1  1     1.380     75  118  161  204  247  290  333  376
            0  2  0  1     1.380     76  119  162  205  248  291  334  377
            0  1  1  1     1.380     77  120  163  206  249  292  335  378
            0  0  2  1     1.380     78  121  164  207  250  293  336  379
            1  0  0  3     1.550     79  122  165  208  251  294  337  380
            0  1  0  3     1.550     80  123  166  209  252  295  338  381
            0  0  1  3     1.550     81  124  167  210  253  296  339  382

 Total number of charge fitting functions (nprimf)      1884
 Total number of Cartesian basis functions (naos)        382
 Total number of Cartesian core functions  (ncos)        154

1
 ***************************************************************************************************



                                              ***********************
                                              *  T E C H N I C A L  *
                                              ***********************
  



 =============================================================
 P A R A L L E L I Z A T I O N  and  V E C T O R I Z A T I O N
 =============================================================
  
 Nr of parallel processes:                               20
 Maximum vector length in NumInt loops:                 128



 =====================
 S C F   U P D A T E S
 =====================
  
 Max. nr. of cycles:                               300
 Convergence criterion:                              0.0000010000
   secondary criterion:                              0.0010000000

 Mix parameter (when DIIS does not apply):           0.2000000000
 Mixed ADIIS+SDIIS will be used                  
    Max number of expansion vectors:                10
    Pure ADIIS when Max([F,P]) is above              0.1000000000
    Pure SDIIS when Max([F,P]) is below              0.0010000000
 Automatic ElectronSmearing (in case of problematic SCF convergence) disabled



 =================
 P R E C I S I O N  ***  (General: NumInt, NeglectFunctionTails, ...)  ***
 =================
  

 NumInt:           Target precision:                 4.0000000000
 -------           Initial precision:                4.0000000000
                   Min. precision (optimization):    4.0000000000

 Neglect Functions:          Basis functions:        0.1000000000E-13
 ------------------          Fit functions:          0.1000000000E-13



 ===========================
 L I N E A R   S C A L I N G
 ===========================
  

 Cut-off radii density fit:                        0.1000000000E-07
 Overlap cut-off criterion AO matrix elements:     0.1000000000E-05
 Cut-offs for Coulomb potential and fitted density:0.1000000000E-07
 Cut-off criterion for Coulomb multipole terms:    0.1000000000E-07
 Progressive Convergence parameter:                 0.000000000    
1
 ***************************************************************************************************



                                            ***************************
                                            *  C O M P U T A T I O N  *
                                            ***************************
  

 Number of elements of the density matrix on this node (used, total):      4102     73153



 ===========================================
 Numerical Integration : Fuzzy Cells (Becke)
 ===========================================
  
 Becke grid quality: NORMAL         
  
 Lebedev angular grid order:             min:  11 max:  23
 Nr. of radial points:                   min:  49 max:  83

 Total nr. of points:      97933
 Nr. of blocks:              766
 Block length:               128
 Nr. of dummy points:        115


 Test of Precision of the Numerical Integration Grid
 ===================================================

 Integral of the Total Core Density:                 291.99998308564983
 Relative Error:                                      -5.793E-08



 ========================
 Density Fitting (zlmFit)
 ========================
  
 ZlmFit Fit Quality: NORMAL         
  
 Max L-expansion:                        min:   6 max:   6
 Nr. of radial interpolation points:     min:  42 max:  69



 =====
 S C F  ***  ScaSCF  ***
 =====
  
 Initial density matrix is calculated as sum of fragments

 CYCLE    1
 SCF Error: norm([F,P])=      1.135021227698, max([F,P])=      0.407902315817
 orbitals (Q,E):
 ---------------
 A :40...59          ( 2.00    -0.2656)  ( 2.00    -0.2643)  ( 2.00    -0.2632)  ( 2.00    -0.2630)
                     ( 2.00    -0.2627)  ( 2.00    -0.2613)  ( 2.00    -0.2605)  ( 2.00    -0.2134)
                     ( 2.00    -0.1944)  ( 2.00    -0.1905)  ( 0.00    -0.1438)  ( 0.00    -0.1423)
                     ( 0.00    -0.1165)  ( 0.00    -0.1142)  ( 0.00    -0.1108)  ( 0.00    -0.0897)
                     ( 0.00    -0.0643)  ( 0.00    -0.0554)  ( 0.00    -0.0261)  ( 0.00    -0.0162)

 CYCLE    2
  SDIIS (wt  0.000):  0.3374  0.6626
 A-DIIS (wt  1.000):  0.0000  1.0000
  DIIS coefficients:  0.0000  1.0000
 SCF Error: norm([F,P])=      0.739246550941, max([F,P])=      0.153563771254
 orbitals (Q,E):
 ---------------
 A :40...50          ( 2.00    -0.2896)  ( 2.00    -0.2892)  ( 2.00    -0.2890)  ( 2.00    -0.2861)
                     ( 2.00    -0.2270)  ( 2.00    -0.2253)  ( 2.00    -0.2181)  ( 2.00    -0.2021)
                     ( 2.00    -0.1917)  ( 2.00    -0.1740)  ( 0.00    -0.1301)

 CYCLE    3
  SDIIS (wt  0.000):  0.0885  0.6625  0.2490
 A-DIIS (wt  1.000):  0.0000  0.7829  0.2171
  DIIS coefficients:  0.0000  0.7829  0.2171
 SCF Error: norm([F,P])=      1.754705893056, max([F,P])=      0.570363275778
 orbitals (Q,E):
 ---------------
 A :40...50          ( 2.00    -0.2716)  ( 2.00    -0.2697)  ( 2.00    -0.2692)  ( 2.00    -0.2674)
                     ( 2.00    -0.2665)  ( 2.00    -0.2648)  ( 2.00    -0.2566)  ( 2.00    -0.2086)
                     ( 2.00    -0.1827)  ( 2.00    -0.1692)  ( 0.00    -0.1176)

 CYCLE    4
  SDIIS (wt  0.128):  0.4410  0.0946  0.4644
 A-DIIS (wt  0.872):  0.3280  0.0000  0.6720
  DIIS coefficients:  0.3424  0.0121  0.6455
 SCF Error: norm([F,P])=      0.430120388742, max([F,P])=      0.087348425544
 orbitals (Q,E):
 ---------------
 A :40...50          ( 2.00    -0.2604)  ( 2.00    -0.2597)  ( 2.00    -0.2582)  ( 2.00    -0.2558)
                     ( 2.00    -0.2549)  ( 2.00    -0.2542)  ( 2.00    -0.2526)  ( 2.00    -0.2044)
                     ( 2.00    -0.1821)  ( 2.00    -0.1740)  ( 0.00    -0.1183)

 CYCLE    5
  SDIIS (wt  0.000):  0.1975 -0.0471  0.5145  0.3351
 A-DIIS (wt  1.000):  0.1530  0.0000  0.4462  0.4008
  DIIS coefficients:  0.1530  0.0000  0.4462  0.4008
 SCF Error: norm([F,P])=      0.444251892782, max([F,P])=      0.153903545170
 orbitals (Q,E):
 ---------------
 A :40...50          ( 2.00    -0.2641)  ( 2.00    -0.2632)  ( 2.00    -0.2616)  ( 2.00    -0.2607)
                     ( 2.00    -0.2596)  ( 2.00    -0.2582)  ( 2.00    -0.2557)  ( 2.00    -0.2056)
                     ( 2.00    -0.1819)  ( 2.00    -0.1751)  ( 0.00    -0.1155)

 CYCLE    6
  SDIIS (wt  0.000):  0.0520 -0.0194  0.3003  0.3571  0.3100
 A-DIIS (wt  1.000):  0.0000  0.0000  0.0688  0.3818  0.5494
  DIIS coefficients:  0.0000  0.0000  0.0688  0.3818  0.5494
 SCF Error: norm([F,P])=      0.353815536331, max([F,P])=      0.115297163527
 orbitals (Q,E):
 ---------------
 A :40...50          ( 2.00    -0.2684)  ( 2.00    -0.2668)  ( 2.00    -0.2659)  ( 2.00    -0.2619)
                     ( 2.00    -0.2616)  ( 2.00    -0.2596)  ( 2.00    -0.2584)  ( 2.00    -0.2085)
                     ( 2.00    -0.1847)  ( 2.00    -0.1741)  ( 0.00    -0.1170)

 CYCLE    7
  SDIIS (wt  0.546): -0.0205 -0.0073  0.0849  0.2831  0.4184  0.2415
 A-DIIS (wt  0.454):  0.0000  0.0000  0.0000  0.1026  0.3576  0.5398
  DIIS coefficients: -0.0112 -0.0040  0.0464  0.2012  0.3908  0.3768
 SCF Error: norm([F,P])=      0.208936114478, max([F,P])=      0.045916849875
 orbitals (Q,E):
 ---------------
 A :40...50          ( 2.00    -0.2610)  ( 2.00    -0.2604)  ( 2.00    -0.2592)  ( 2.00    -0.2579)
                     ( 2.00    -0.2575)  ( 2.00    -0.2561)  ( 2.00    -0.2559)  ( 2.00    -0.2041)
                     ( 2.00    -0.1802)  ( 2.00    -0.1729)  ( 0.00    -0.1150)

 CYCLE    8
  SDIIS (wt  0.859): -0.0144 -0.0064  0.0302  0.1547  0.2941  0.2948  0.2470
 A-DIIS (wt  0.141):  0.0000  0.0000  0.0000  0.0000  0.0083  0.2452  0.7465
  DIIS coefficients: -0.0124 -0.0055  0.0259  0.1328  0.2537  0.2878  0.3177
 SCF Error: norm([F,P])=      0.089257091360, max([F,P])=      0.015000201671
 orbitals (Q,E):
 ---------------
 A :40...50          ( 2.00    -0.2644)  ( 2.00    -0.2624)  ( 2.00    -0.2618)  ( 2.00    -0.2603)
                     ( 2.00    -0.2595)  ( 2.00    -0.2589)  ( 2.00    -0.2580)  ( 2.00    -0.2056)
                     ( 2.00    -0.1821)  ( 2.00    -0.1733)  ( 0.00    -0.1154)

 CYCLE    9
  SDIIS (wt  0.943): -0.0047 -0.0011 -0.0111  0.0105  0.0834  0.1913  0.3436  0.3879
 A-DIIS (wt  0.057):  0.0000  0.0000  0.0000  0.0000  0.0000  0.0000  0.1904  0.8096
  DIIS coefficients: -0.0044 -0.0010 -0.0104  0.0099  0.0786  0.1805  0.3349  0.4119
 SCF Error: norm([F,P])=      0.033683646635, max([F,P])=      0.006628296503
 orbitals (Q,E):
 ---------------
 A :40...50          ( 2.00    -0.2635)  ( 2.00    -0.2631)  ( 2.00    -0.2618)  ( 2.00    -0.2606)
                     ( 2.00    -0.2600)  ( 2.00    -0.2593)  ( 2.00    -0.2582)  ( 2.00    -0.2058)
                     ( 2.00    -0.1821)  ( 2.00    -0.1737)  ( 0.00    -0.1156)

 CYCLE   10
  SDIIS (wt  0.997): -0.0023 -0.0005 -0.0077 -0.0008  0.0376  0.1025  0.2129  0.3060  0.3521
 A-DIIS (wt  0.003):  0.0000  0.0000  0.0000  0.0000  0.0000  0.0000  0.0000  0.0601  0.9399
  DIIS coefficients: -0.0023 -0.0005 -0.0077 -0.0008  0.0375  0.1023  0.2123  0.3053  0.3538
 SCF Error: norm([F,P])=      0.007722832331, max([F,P])=      0.001286064126
 orbitals (Q,E):
 ---------------
 A :40...50          ( 2.00    -0.2634)  ( 2.00    -0.2628)  ( 2.00    -0.2617)  ( 2.00    -0.2603)
                     ( 2.00    -0.2598)  ( 2.00    -0.2592)  ( 2.00    -0.2580)  ( 2.00    -0.2057)
                     ( 2.00    -0.1819)  ( 2.00    -0.1735)  ( 0.00    -0.1156)

 CYCLE   11
  SDIIS (wt  1.000):  0.0001 -0.0003 -0.0011 -0.0020  0.0077  0.0285  0.0727  0.1289  0.2418  0.5236
  DIIS coefficients:  0.0001 -0.0003 -0.0011 -0.0020  0.0077  0.0285  0.0727  0.1289  0.2418  0.5236
 SCF Error: norm([F,P])=      0.001713480500, max([F,P])=      0.000228321518
 orbitals (Q,E):
 ---------------
 A :40...50          ( 2.00    -0.2634)  ( 2.00    -0.2628)  ( 2.00    -0.2617)  ( 2.00    -0.2603)
                     ( 2.00    -0.2598)  ( 2.00    -0.2592)  ( 2.00    -0.2581)  ( 2.00    -0.2056)
                     ( 2.00    -0.1819)  ( 2.00    -0.1735)  ( 0.00    -0.1155)

 CYCLE   12
  SDIIS (wt  1.000): -0.0002 -0.0003 -0.0006  0.0024  0.0076  0.0210  0.0468  0.1173  0.3133  0.4926
  DIIS coefficients: -0.0002 -0.0003 -0.0006  0.0024  0.0076  0.0210  0.0468  0.1173  0.3133  0.4926
 SCF Error: norm([F,P])=      0.000610073876, max([F,P])=      0.000109029391
 orbitals (Q,E):
 ---------------
 A :40...50          ( 2.00    -0.2634)  ( 2.00    -0.2628)  ( 2.00    -0.2617)  ( 2.00    -0.2603)
                     ( 2.00    -0.2598)  ( 2.00    -0.2592)  ( 2.00    -0.2580)  ( 2.00    -0.2056)
                     ( 2.00    -0.1819)  ( 2.00    -0.1735)  ( 0.00    -0.1156)

 CYCLE   13
  SDIIS (wt  1.000): -0.0001 -0.0004  0.0002  0.0003  0.0039  0.0177  0.0620  0.1726  0.4007  0.3431
  DIIS coefficients: -0.0001 -0.0004  0.0002  0.0003  0.0039  0.0177  0.0620  0.1726  0.4007  0.3431
 SCF Error: norm([F,P])=      0.000417966445, max([F,P])=      0.000059187077
 orbitals (Q,E):
 ---------------
 A :40...50          ( 2.00    -0.2634)  ( 2.00    -0.2628)  ( 2.00    -0.2617)  ( 2.00    -0.2603)
                     ( 2.00    -0.2598)  ( 2.00    -0.2592)  ( 2.00    -0.2581)  ( 2.00    -0.2056)
                     ( 2.00    -0.1819)  ( 2.00    -0.1735)  ( 0.00    -0.1156)

 CYCLE   14
  SDIIS (wt  1.000): -0.0002  0.0002  0.0000  0.0023  0.0115  0.0415  0.1104  0.2640  0.2454  0.3249
  DIIS coefficients: -0.0002  0.0002  0.0000  0.0023  0.0115  0.0415  0.1104  0.2640  0.2454  0.3249
 SCF Error: norm([F,P])=      0.000099194965, max([F,P])=      0.000016410816
 orbitals (Q,E):
 ---------------
 A :40...50          ( 2.00    -0.2634)  ( 2.00    -0.2628)  ( 2.00    -0.2617)  ( 2.00    -0.2603)
                     ( 2.00    -0.2598)  ( 2.00    -0.2592)  ( 2.00    -0.2581)  ( 2.00    -0.2056)
                     ( 2.00    -0.1819)  ( 2.00    -0.1735)  ( 0.00    -0.1156)

 CYCLE   15
  SDIIS (wt  1.000):  0.0002  0.0002  0.0007  0.0030  0.0121  0.0276  0.0859  0.0906  0.2104  0.5694
  DIIS coefficients:  0.0002  0.0002  0.0007  0.0030  0.0121  0.0276  0.0859  0.0906  0.2104  0.5694
 SCF Error: norm([F,P])=      0.000036723585, max([F,P])=      0.000005034803
 orbitals (Q,E):
 ---------------
 A :40...50          ( 2.00    -0.2634)  ( 2.00    -0.2628)  ( 2.00    -0.2617)  ( 2.00    -0.2603)
                     ( 2.00    -0.2598)  ( 2.00    -0.2592)  ( 2.00    -0.2581)  ( 2.00    -0.2056)
                     ( 2.00    -0.1819)  ( 2.00    -0.1735)  ( 0.00    -0.1156)

 CYCLE   16
  SDIIS (wt  1.000): -0.0000 -0.0001  0.0003  0.0023  0.0051  0.0190  0.0184  0.0712  0.2704  0.6134
  DIIS coefficients: -0.0000 -0.0001  0.0003  0.0023  0.0051  0.0190  0.0184  0.0712  0.2704  0.6134
 SCF Error: norm([F,P])=      0.000009148338, max([F,P])=      0.000001184833
 orbitals (Q,E):
 ---------------
 A :40...50          ( 2.00    -0.2634)  ( 2.00    -0.2628)  ( 2.00    -0.2617)  ( 2.00    -0.2603)
                     ( 2.00    -0.2598)  ( 2.00    -0.2592)  ( 2.00    -0.2581)  ( 2.00    -0.2056)
                     ( 2.00    -0.1819)  ( 2.00    -0.1735)  ( 0.00    -0.1156)

 CYCLE   17
  SDIIS (wt  1.000): -0.0000  0.0001  0.0007  0.0015  0.0056  0.0053  0.0328  0.1289  0.3574  0.4678
  DIIS coefficients: -0.0000  0.0001  0.0007  0.0015  0.0056  0.0053  0.0328  0.1289  0.3574  0.4678
 SCF Error: norm([F,P])=      0.000002582839, max([F,P])=      0.000000461603
 orbitals (Q,E):
 ---------------
 A :40...50          ( 2.00    -0.2634)  ( 2.00    -0.2628)  ( 2.00    -0.2617)  ( 2.00    -0.2603)
                     ( 2.00    -0.2598)  ( 2.00    -0.2592)  ( 2.00    -0.2581)  ( 2.00    -0.2056)
                     ( 2.00    -0.1819)  ( 2.00    -0.1735)  ( 0.00    -0.1156)

 SCF CONVERGED

 CYCLE   18
1
 ***************************************************************************************************



                                                *******************
                                                *  R E S U L T S  *
                                                *******************
  
 *** Using FIT density in Focky
  SDIIS (wt  1.000):  0.0000  0.0002  0.0006  0.0017  0.0015  0.0116  0.0400  0.1311  0.2833  0.5299
  DIIS coefficients:  0.0000  0.0002  0.0006  0.0017  0.0015  0.0116  0.0400  0.1311  0.2833  0.5299
 SCF Error: norm([F,P])=      0.000001136626, max([F,P])=      0.000000206101

 Scaled ZORA Orbital Energies, per Irrep and Spin:
 =================================================
                        Occup              E (au)              E (eV)       Diff (eV) with prev. cycle
                        -----      --------------------        ------       --------------------------
 A
              40        2.000     -0.26343619101801E+00        -7.168               1.84E-07
              41        2.000     -0.26283897966427E+00        -7.152               6.25E-07
              42        2.000     -0.26171575544425E+00        -7.122               3.38E-08
              43        2.000     -0.26032024482365E+00        -7.084               5.35E-07
              44        2.000     -0.25978075289589E+00        -7.069               4.28E-07
              45        2.000     -0.25919115364103E+00        -7.053               2.56E-07
              46        2.000     -0.25805892801386E+00        -7.022               3.76E-07
              47        2.000     -0.20564082629884E+00        -5.596               4.90E-07
              48        2.000     -0.18191775389507E+00        -4.950               5.52E-07
              49        2.000     -0.17351822701421E+00        -4.722               1.20E-06
              50        0.000     -0.11555629526591E+00        -3.144
              51        0.000     -0.10875469712136E+00        -2.959
              52        0.000     -0.10737872896454E+00        -2.922
              53        0.000     -0.10075402699101E+00        -2.742
              54        0.000     -0.87692723460304E-01        -2.386
              55        0.000     -0.74281181223443E-01        -2.021
              56        0.000     -0.47423525064443E-01        -1.290
              57        0.000     -0.38380474274360E-01        -1.044
              58        0.000     -0.17292715758434E-01        -0.471
              59        0.000     -0.81053282757966E-02        -0.221
  
 HOMO :       49 A                -0.17351822701421E+00
 LUMO :       50 A                -0.11555629526591E+00
  


 Scaled ZORA Orbital Energies of the Core Orbitals:
 ==================================================

 (Note that the atoms are grouped by atomtype, see the labels, and may hence NOT be in input order)

 AtomType  Orbital  Atom                   E (au)                        E (eV)
 --------  -------  ----           --------------------        ----------------
 C           1S        1          -0.10042882578666E+02                -273.281
 O           1S        2          -0.18901897880434E+02                -514.347
 Ag          1S        3          -0.93043216938150E+03              -25318.348
                       4          -0.93040876065072E+03              -25317.711
                       5          -0.93041155872046E+03              -25317.787
                       6          -0.93040925261206E+03              -25317.724
                       7          -0.93040835534169E+03              -25317.700
                       8          -0.93041262439519E+03              -25317.816
                       9          -0.93040775609884E+03              -25317.683
                      10          -0.93041279790186E+03              -25317.820
             2S        3          -0.13699103625901E+03               -3727.716
                       4          -0.13696738332537E+03               -3727.072
                       5          -0.13697022294542E+03               -3727.149
                       6          -0.13696789072240E+03               -3727.086
                       7          -0.13696707254930E+03               -3727.064
                       8          -0.13697129184304E+03               -3727.178
                       9          -0.13696638012783E+03               -3727.045
                      10          -0.13697146486429E+03               -3727.183
             3S        3          -0.25131252922551E+02                -683.856
                       4          -0.25108320325009E+02                -683.232
                       5          -0.25111243617345E+02                -683.312
                       6          -0.25108795984694E+02                -683.245
                       7          -0.25108062986798E+02                -683.225
                       8          -0.25112312144895E+02                -683.341
                       9          -0.25107318684776E+02                -683.205
                      10          -0.25112498878855E+02                -683.346
             4S        3          -0.35360034725602E+01                 -96.220
                       4          -0.35148648630899E+01                 -95.644
                       5          -0.35180252074151E+01                 -95.730
                       6          -0.35152744432431E+01                 -95.655
                       7          -0.35147557932121E+01                 -95.641
                       8          -0.35190905989063E+01                 -95.759
                       9          -0.35138759020616E+01                 -95.617
                      10          -0.35193094679523E+01                 -95.765
             2P        3          -0.12284332163507E+03               -3342.737
                       4          -0.12281966980813E+03               -3342.093
                       5          -0.12282250755911E+03               -3342.170
                       6          -0.12282017709339E+03               -3342.107
                       7          -0.12281935413600E+03               -3342.085
                       8          -0.12282357642075E+03               -3342.200
                       9          -0.12281866659202E+03               -3342.066
                      10          -0.12282374880630E+03               -3342.204
             3P        3          -0.20515480511356E+02                -558.255
                       4          -0.20492544990954E+02                -557.631
                       5          -0.20495468769021E+02                -557.710
                       6          -0.20493020945167E+02                -557.643
                       7          -0.20492288504055E+02                -557.624
                       8          -0.20496537359806E+02                -557.739
                       9          -0.20491543398574E+02                -557.603
                      10          -0.20496723979635E+02                -557.744
             4P        3          -0.21998639111328E+01                 -59.861
                       4          -0.21792273091577E+01                 -59.300
                       5          -0.21824739837244E+01                 -59.388
                       6          -0.21796196770547E+01                 -59.310
                       7          -0.21791704316946E+01                 -59.298
                       8          -0.21835381361232E+01                 -59.417
                       9          -0.21782385566295E+01                 -59.273
                      10          -0.21837629539686E+01                 -59.423
             3D        3          -0.13215101022830E+02                -359.601
                       4          -0.13192066936192E+02                -358.974
                       5          -0.13194982042897E+02                -359.054
                       6          -0.13192547435647E+02                -358.987
                       7          -0.13191808126055E+02                -358.967
                       8          -0.13196050822192E+02                -359.083
                       9          -0.13191065152986E+02                -358.947
                      10          -0.13196235909478E+02                -359.088


 Fit test: (difference of exact and fit density, squared integrated, result summed over spins)
         Sum-of-Fragments:                             0.00000000005602
         Orthogonalized Fragments:                     0.00008583076775
         SCF:                                          0.00028362298040



 ==========================
 Electron Density at Nuclei
 ==========================
  
 The electron density is calculated at points on a small sphere around the center of a nucleus.
 The printed electron density is the average electron density on these points.
 The radius of the sphere is the printed approximate finite nuclear radius.
 Note: ZORA-4 density is used, which includes small component density

         Atom        Nuclear Radius (Angstrom)             Electron Density (a.u.)
         ----        -------------------------             -----------------------
     1)   C                 0.0000320678                              127.52063
     2)   O                 0.0000345546                              316.13158
     3)   Ag                0.0000585966                           141430.01819
     4)   Ag                0.0000585966                           141430.02685
     5)   Ag                0.0000585966                           141430.49497
     6)   Ag                0.0000585966                           141430.05898
     7)   Ag                0.0000585966                           141430.61080
     8)   Ag                0.0000585966                           141430.51850
     9)   Ag                0.0000585966                           141430.03097
    10)   Ag                0.0000585966                           141430.49674



 =======================================
 M U L L I K E N   P O P U L A T I O N S
 =======================================
  
 The survey below gives for each atom:
 a) the total charge (Z minus electrons)
 b) the net spin polarization (nr of electrons spin-A minus spin-B)
 c) for each spin the atomic electron valence density (integrated) per L-value.

 Atom              Charge    Spin density          S         P         D         F
 ----              ------    ------------       ------    ------    ------    ------
 1 C               0.2784                       1.6062    2.0310    0.0844    0.0000
 2 O              -0.2869                       1.8684    4.3600    0.0584    0.0000
 3 Ag              0.1171                       0.7027    0.4127    9.7676    0.0000
 4 Ag              0.0623                       0.8361    0.2637    9.8379    0.0000
 5 Ag             -0.0737                       0.9821    0.2158    9.8758    0.0000
 6 Ag              0.0601                       0.8400    0.2641    9.8358    0.0000
 7 Ag             -0.0847                       0.9906    0.2199    9.8742    0.0000
 8 Ag             -0.0692                       0.9826    0.2109    9.8756    0.0000
 9 Ag              0.0654                       0.8303    0.2649    9.8393    0.0000
 10 Ag            -0.0689                       0.9782    0.2149    9.8758    0.0000

 Populations of individual BAS functions
 ----------------------------------------
 1 C            0.0007  0.7637  0.8752 -0.0333 -0.0115 -0.0039 -0.0204  0.5100  0.4970  0.5771
                0.1572  0.1296  0.1959  0.0088  0.0106  0.0181  0.0017  0.0186  0.0266
 2 O            0.0005  0.8930  0.9921 -0.0172  0.2866  0.3148  0.2466  0.8940  0.8817  0.9233
                0.2682  0.2627  0.2822  0.0086  0.0075  0.0123 -0.0018  0.0124  0.0194
 3 Ag          -0.0003  0.0002 -0.0022  0.0287  0.0000  0.0000  0.0000  0.0001  0.0001  0.0001
                0.0011  0.0014  0.0021  0.0384  0.0575  0.0569  0.0380  0.0578  0.0380  0.2626
                0.4542 -0.0404  0.5510  0.8193  0.8109  0.5413  0.8229  0.5389  0.6502  0.9539
                0.9484  0.6294  0.9536  0.6190  0.0954  0.1330  0.1272  0.0908  0.1256  0.0701
                0.1364  0.1222  0.1493
 4 Ag          -0.0003  0.0002 -0.0023  0.0284  0.0000  0.0000  0.0000  0.0000  0.0001  0.0001
                0.0007  0.0011  0.0010  0.0384  0.0575  0.0578  0.0383  0.0570  0.0384  0.2820
                0.5029  0.0252  0.5505  0.8197  0.8237  0.5422  0.8124  0.5478  0.6472  0.9566
                0.9614  0.6233  0.9538  0.6412  0.0927  0.1317  0.1240  0.0927  0.1369  0.0928
                0.0496  0.0900  0.1210
 5 Ag          -0.0003  0.0002 -0.0024  0.0296  0.0000  0.0000  0.0000  0.0000  0.0000  0.0000
                0.0006  0.0007  0.0007  0.0382  0.0576  0.0574  0.0383  0.0575  0.0383  0.3203
                0.6078  0.0270  0.5462  0.8216  0.8190  0.5439  0.8200  0.5469  0.6439  0.9587
                0.9550  0.6269  0.9572  0.6431  0.0891  0.1416  0.1430  0.1013  0.1448  0.0865
                0.0698  0.0593  0.0846
 6 Ag          -0.0003  0.0002 -0.0023  0.0285  0.0000  0.0000  0.0000  0.0000  0.0001  0.0001
                0.0007  0.0011  0.0010  0.0384  0.0575  0.0578  0.0383  0.0570  0.0384  0.2826
                0.5047  0.0266  0.5505  0.8196  0.8233  0.5423  0.8123  0.5478  0.6475  0.9564
                0.9606  0.6231  0.9537  0.6410  0.0923  0.1317  0.1237  0.0928  0.1368  0.0931
                0.0504  0.0904  0.1203
 7 Ag          -0.0003  0.0002 -0.0025  0.0300  0.0000  0.0000  0.0000  0.0000  0.0000  0.0000
                0.0006  0.0007  0.0008  0.0382  0.0576  0.0574  0.0383  0.0574  0.0383  0.3225
                0.6098  0.0309  0.5461  0.8213  0.8187  0.5445  0.8193  0.5467  0.6443  0.9584
                0.9542  0.6266  0.9559  0.6418  0.0886  0.1419  0.1430  0.1029  0.1464  0.0861
                0.0680  0.0566  0.0932
 8 Ag          -0.0003  0.0002 -0.0024  0.0297  0.0000  0.0000  0.0000  0.0000  0.0000  0.0000
                0.0008  0.0007  0.0005  0.0383  0.0574  0.0574  0.0383  0.0576  0.0383  0.3194
                0.6067  0.0294  0.5465  0.8192  0.8187  0.5450  0.8211  0.5470  0.6394  0.9562
                0.9553  0.6281  0.9587  0.6477  0.0861  0.1465  0.1427  0.1017  0.1413  0.0872
                0.0851  0.0593  0.0646
 9 Ag          -0.0003  0.0002 -0.0023  0.0284  0.0000  0.0000  0.0000  0.0000  0.0001  0.0000
                0.0009  0.0012  0.0008  0.0383  0.0570  0.0578  0.0383  0.0576  0.0384  0.2819
                0.4976  0.0249  0.5475  0.8124  0.8233  0.5422  0.8204  0.5504  0.6414  0.9540
                0.9612  0.6220  0.9570  0.6477  0.0940  0.1366  0.1249  0.0934  0.1310  0.0926
                0.1113  0.0921  0.0585
 10 Ag         -0.0003  0.0002 -0.0024  0.0296  0.0000  0.0000  0.0000  0.0000  0.0000  0.0000
                0.0008  0.0007  0.0005  0.0383  0.0574  0.0574  0.0383  0.0576  0.0383  0.3184
                0.6045  0.0282  0.5466  0.8190  0.8186  0.5450  0.8213  0.5469  0.6393  0.9562
                0.9552  0.6285  0.9589  0.6472  0.0864  0.1462  0.1427  0.1024  0.1412  0.0865
                0.0861  0.0606  0.0661

 Gross Charges per Atom (Z minus electrons)
 ==========================================
             0.2784   -0.2869    0.1171    0.0623   -0.0737    0.0601   -0.0847   -0.0692    0.0654   -0.0689
 Net Total:  0.00000000


 Atom-Atom Population Matrix (off-diagonal elements not doubled)
 ===============================================================

     1 :     3.0967
     2 :     0.4841    5.8173
     3 :     0.1435   -0.0109   10.2717
     4 :     0.0023   -0.0011    0.0767   10.4559
     5 :     0.0020   -0.0025    0.1717    0.1223   10.6262
     6 :    -0.0015    0.0001    0.0823   -0.0539    0.1235   10.4559
     7 :    -0.0004    0.0001   -0.0296    0.1131    0.0944    0.1097   10.6330
     8 :    -0.0041    0.0001    0.1132   -0.0332   -0.0121    0.1874   -0.0190   10.6132
     9 :     0.0000    0.0001   -0.0440    0.0693   -0.0391    0.0704    0.2017    0.1038   10.4635
    10 :    -0.0011   -0.0004    0.1082    0.1863   -0.0126   -0.0340   -0.0183    0.1199    0.1088   10.6119



 =================================================
 H I R S H F E L D   C H A R G E   A N A L Y S I S
 =================================================
  
 For each fragment: the (numerical) integral of rho(scf) * rho(fragment)/rho(sum-of-fragments)
 (nuclear charges are included, electrons are counted negative)

 The fragments and their ordering are defined in the early G E O M E T R Y output section.
[...]
                                   21.69%     2 S               1.356  0.00     4 Ag
                                   19.68%     2 S               1.356  0.00     9 Ag
                                   18.64%     2 S               1.356  0.00     6 Ag
                                   12.62%     2 S               1.356  0.00    10 Ag
                                   10.18%     2 S               1.356  0.00     7 Ag
                                   -6.58%     1 S              -4.550  1.00     6 Ag
                                    4.85%     2 P:z             4.695  0.00     1 C
                                   -4.29%     1 S              -4.550  1.00     3 Ag
                                   -4.19%     1 S              -4.550  1.00     4 Ag
                                   -2.30%     1 S              -4.550  1.00    10 Ag
                                   -1.69%     1 S              -4.550  1.00     9 Ag
                                    1.23%     1 P:x            -5.426  0.67     1 C
                                    1.02%     1 P:z             0.354  0.00     4 Ag
       2.285  0.00    71 A         19.50%     2 S               1.356  0.00     5 Ag
                                   10.62%     1 P:z             0.354  0.00     6 Ag
                                    9.84%     1 P:z             0.354  0.00     4 Ag
                                    8.14%     1 S              -4.550  1.00     3 Ag
                                    8.04%     2 S               1.356  0.00    10 Ag
                                    6.97%     2 S               1.356  0.00     9 Ag
                                    6.92%     2 S               1.356  0.00     4 Ag
                                   -4.56%     1 S              -4.550  1.00     5 Ag
                                    3.39%     1 P:z             0.354  0.00     9 Ag
                                   -2.63%     2 P:z             4.695  0.00     1 C
                                    2.36%     2 D:xz            8.000  0.00     4 Ag
                                    2.27%     1 P:x             0.354  0.00    10 Ag
                                    2.23%     1 P:z             0.354  0.00     3 Ag
                                   -2.08%     1 S              -4.550  1.00     8 Ag
                                    1.87%     2 S               1.356  0.00     6 Ag
                                    1.76%     1 P:y             0.354  0.00    10 Ag
                                    1.70%     2 D:xz            8.000  0.00     6 Ag
                                   -1.65%     2 S              11.654  0.00     1 C
                                    1.43%     1 P:z             0.354  0.00     8 Ag
                                    1.30%     1 P:z             0.354  0.00     5 Ag
                                    1.28%     1 P:x             0.354  0.00     6 Ag
                                   -1.28%     1 S              -4.550  1.00     7 Ag
                                    1.18%     2 P:y             4.695  0.00     1 C



 ==================
 AOResponse routine  ***  Version 09/07 (scalar- or non-relativistic)  ***
 ==================
  
 *** number of frequencies =           1
 *** frequency #           1 =  0.000000000000000E+000  Hartree, 
  0.000000000000000E+000  eV
 
 No. of frequency:           1

    Dipmat_x            
    using first order VWN potential
 
    NOTE: We will NOT use the GGA kernel (input option ALDA was set)
 
 CRIT   1.00000000000000     
 iter.  1 V(1) measure  0.4445342991771E+04
 *** convergence criterion : .4445343E-02
 CRIT   225.323805015834     
 iter.  2 V(1) measure  0.4031306819105E+04
        2        delta  0.4140361726665E+03
 CRIT   97.7655682104695     
 iter.  3 V(1) measure  0.4021076777048E+04
        3        delta  0.1023004205674E+02
 CRIT   29.1567801868973     
 iter.  4 V(1) measure  0.4015053972635E+04
        4        delta  0.6022804412520E+01
 CRIT   11.2171028065996     
 iter.  5 V(1) measure  0.4010912645621E+04
        5        delta  0.4141327014622E+01
 CRIT   3.05511077339261     
 iter.  6 V(1) measure  0.4009980014295E+04
        6        delta  0.9326313258230E+00
 CRIT   2.06464500986321     
 iter.  7 V(1) measure  0.4009697081626E+04
        7        delta  0.2829326692877E+00
 CRIT  0.809370956112584     
 iter.  8 V(1) measure  0.4009783932892E+04
        8        delta  0.8685126676801E-01
 CRIT  0.238626733007195     
 iter.  9 V(1) measure  0.4009830495530E+04
        9        delta  0.4656263720244E-01
 CRIT  0.121784593334774     
 iter. 10 V(1) measure  0.4009864932706E+04
       10        delta  0.3443717681466E-01
 CRIT  2.966826561710923E-002
 iter. 11 V(1) measure  0.4009876526811E+04
       11        delta  0.1159410428909E-01
 CRIT  1.081040203161551E-002
 iter. 12 V(1) measure  0.4009879720166E+04
       12        delta  0.3193355817075E-02
 *** convergence reached
 ----------------------------------------------
Hirshfeld fragment: 1 C
pol_frag_loc x              4.07955
pol_frag_loc y             -0.54158
pol_frag_loc z             -1.03124
charge_frag                -0.35829
pol_frag_non-loc x         -0.20677
pol_frag_non-loc y          0.67629
pol_frag_non-loc z         -2.13968
 ----------------------------------------------
Hirshfeld fragment: 1 O
pol_frag_loc x              2.62622
pol_frag_loc y              0.05244
pol_frag_loc z              0.35840
charge_frag                 1.97103
pol_frag_non-loc x          3.50568
pol_frag_non-loc y         -2.28331
pol_frag_non-loc z         14.99400
 ----------------------------------------------
Hirshfeld fragment: 1 Ag
pol_frag_loc x              8.43977
pol_frag_loc y              0.25792
pol_frag_loc z             -0.90631
charge_frag                -0.45921
pol_frag_non-loc x          0.13090
pol_frag_non-loc y          0.33953
pol_frag_non-loc z         -0.87623
 ----------------------------------------------
Hirshfeld fragment: 2 Ag
pol_frag_loc x             25.93810
pol_frag_loc y              4.09272
pol_frag_loc z             -0.51253
charge_frag                11.58649
pol_frag_non-loc x         38.30089
pol_frag_non-loc y         17.22223
pol_frag_non-loc z        -19.49528
 ----------------------------------------------
Hirshfeld fragment: 3 Ag
pol_frag_loc x             14.98387
pol_frag_loc y             -0.17054
pol_frag_loc z             -0.50786
charge_frag                -0.28658
pol_frag_non-loc x          0.08169
pol_frag_non-loc y         -1.26214
pol_frag_non-loc z         -0.31450
 ----------------------------------------------
Hirshfeld fragment: 4 Ag
pol_frag_loc x             26.18818
pol_frag_loc y             -4.15521
pol_frag_loc z             -0.08365
charge_frag               -11.68834
pol_frag_non-loc x         45.30126
pol_frag_non-loc y        -17.37361
pol_frag_non-loc z         19.66664
 ----------------------------------------------
Hirshfeld fragment: 5 Ag
pol_frag_loc x             15.99256
pol_frag_loc y             -0.02887
pol_frag_loc z              0.27426
charge_frag                -0.11426
pol_frag_non-loc x          0.03257
pol_frag_non-loc y         -0.50320
pol_frag_non-loc z          0.50988
 ----------------------------------------------
Hirshfeld fragment: 6 Ag
pol_frag_loc x             21.29266
pol_frag_loc y              6.68509
pol_frag_loc z             -0.22732
charge_frag                -9.67416
pol_frag_non-loc x         29.65175
pol_frag_non-loc y         35.37919
pol_frag_non-loc z         16.27760
 ----------------------------------------------
Hirshfeld fragment: 7 Ag
pol_frag_loc x             10.94499
pol_frag_loc y             -0.04610
pol_frag_loc z              0.41380
charge_frag                -0.24004
pol_frag_non-loc x          0.07553
pol_frag_non-loc y          0.16624
pol_frag_non-loc z          1.27730
 ----------------------------------------------
Hirshfeld fragment: 8 Ag
pol_frag_loc x             20.74931
pol_frag_loc y             -6.35468
pol_frag_loc z             -0.42647
charge_frag                 9.26256
pol_frag_non-loc x         22.68659
pol_frag_non-loc y        -33.77150
pol_frag_non-loc z        -16.23775
 ----------------------------------------------
pol_total x        290.79508
pol_total y         -1.61878
pol_total z         11.01174

    Dipmat_y            
    using first order VWN potential
 
    NOTE: We will NOT use the GGA kernel (input option ALDA was set)
 
 CRIT   1.00000000000000     
 iter.  1 V(1) measure  0.1056618028334E+05
 *** convergence criterion : .1056618E-01
 CRIT   276.307891578193     
 iter.  2 V(1) measure  0.9670105189430E+04
        2        delta  0.8960750939134E+03
 CRIT   86.3753008240708     
 iter.  3 V(1) measure  0.9624737844978E+04
        3        delta  0.4536734445190E+02
 CRIT   42.6230796908941     
 iter.  4 V(1) measure  0.9620894800084E+04
        4        delta  0.3843044894633E+01
 CRIT   19.8535575735159     
 iter.  5 V(1) measure  0.9609663114053E+04
        5        delta  0.1123168603110E+02
 CRIT   4.08616307831343     
 iter.  6 V(1) measure  0.9608433728042E+04
        6        delta  0.1229386010253E+01
 CRIT   2.21431782854331     
 iter.  7 V(1) measure  0.9608943988712E+04
        7        delta  0.5102606700166E+00
 CRIT  0.926698249851454     
 iter.  8 V(1) measure  0.9609185288787E+04
        8        delta  0.2413000749548E+00
 CRIT  0.255761920210515     
 iter.  9 V(1) measure  0.9609178686286E+04
        9        delta  0.6602501889574E-02
 *** convergence reached
 ----------------------------------------------
Hirshfeld fragment: 1 C
pol_frag_loc x              0.85790
pol_frag_loc y              5.84020
pol_frag_loc z             -0.38509
charge_frag                -2.79394
pol_frag_non-loc x         -1.61239
pol_frag_non-loc y          5.27370
pol_frag_non-loc z        -16.68528
 ----------------------------------------------
Hirshfeld fragment: 1 O
pol_frag_loc x             -0.28737
pol_frag_loc y              2.17317
pol_frag_loc z             -0.50879
charge_frag                -0.68754
pol_frag_non-loc x         -1.22286
pol_frag_non-loc y          0.79647
pol_frag_non-loc z         -5.23022
 ----------------------------------------------
Hirshfeld fragment: 1 Ag
pol_frag_loc x              0.26891
pol_frag_loc y              5.94939
pol_frag_loc z             -0.61394
charge_frag                -1.77456
pol_frag_non-loc x          0.50585
pol_frag_non-loc y          1.31208
pol_frag_non-loc z         -3.38607
 ----------------------------------------------
Hirshfeld fragment: 2 Ag
pol_frag_loc x              6.08194
pol_frag_loc y             10.04619
pol_frag_loc z              0.15421
charge_frag                 4.09422
pol_frag_non-loc x         13.53407
pol_frag_non-loc y          6.08567
pol_frag_non-loc z         -6.88888
 ----------------------------------------------
Hirshfeld fragment: 3 Ag
pol_frag_loc x             -0.09658
pol_frag_loc y             22.95873
pol_frag_loc z              9.96024
charge_frag                13.25179
pol_frag_non-loc x         -3.77752
pol_frag_non-loc y         58.36229
pol_frag_non-loc z         14.54256
 ----------------------------------------------
Hirshfeld fragment: 4 Ag
pol_frag_loc x             -6.02263
pol_frag_loc y             10.01091
pol_frag_loc z              0.10831
charge_frag                 4.07156
pol_frag_non-loc x        -15.78041
pol_frag_non-loc y          6.05199
pol_frag_non-loc z         -6.85075
 ----------------------------------------------
Hirshfeld fragment: 5 Ag
pol_frag_loc x              0.00777
pol_frag_loc y             23.95169
pol_frag_loc z            -11.03644
charge_frag                13.59346
pol_frag_non-loc x         -3.87492
pol_frag_non-loc y         59.86704
pol_frag_non-loc z        -60.66189
 ----------------------------------------------
Hirshfeld fragment: 6 Ag
pol_frag_loc x              9.81850
pol_frag_loc y             22.59820
pol_frag_loc z             -0.08896
charge_frag               -12.87888
pol_frag_non-loc x         39.47439
pol_frag_non-loc y         47.09912
pol_frag_non-loc z         21.66983
 ----------------------------------------------
Hirshfeld fragment: 7 Ag
pol_frag_loc x             -0.09554
pol_frag_loc y              9.60277
pol_frag_loc z              6.24655
charge_frag                -4.19175
pol_frag_non-loc x          1.31894
pol_frag_non-loc y          2.90300
pol_frag_non-loc z         22.30546
 ----------------------------------------------
Hirshfeld fragment: 8 Ag
pol_frag_loc x             -9.64731
pol_frag_loc y             22.47054
pol_frag_loc z              0.61979
charge_frag               -12.68483
pol_frag_non-loc x        -31.06867
pol_frag_non-loc y         46.24916
pol_frag_non-loc z         22.23716
 ----------------------------------------------
pol_total x         -1.61808
pol_total y        369.60248
pol_total z        -14.49297

    Dipmat_z            
    using first order VWN potential
 
    NOTE: We will NOT use the GGA kernel (input option ALDA was set)
 
 CRIT   1.00000000000000     
 iter.  1 V(1) measure  0.6524631357480E+04
 *** convergence criterion : .6524631E-02
 CRIT   255.069539358750     
 iter.  2 V(1) measure  0.5976957585141E+04
        2        delta  0.5476737723393E+03
 CRIT   93.5611553248809     
 iter.  3 V(1) measure  0.5909474788068E+04
        3        delta  0.6748279707320E+02
 CRIT   41.3390880504702     
 iter.  4 V(1) measure  0.5903740921825E+04
        4        delta  0.5733866243223E+01
 CRIT   19.5124408339856     
 iter.  5 V(1) measure  0.5901788169550E+04
        5        delta  0.1952752274724E+01
 CRIT   7.57738916333877     
 iter.  6 V(1) measure  0.5900260598242E+04
        6        delta  0.1527571308246E+01
 CRIT   3.49025323416177     
 iter.  7 V(1) measure  0.5901269927061E+04
        7        delta  0.1009328819295E+01
 CRIT   1.41777991225791     
 iter.  8 V(1) measure  0.5901850698824E+04
        8        delta  0.5807717632988E+00
 CRIT  0.418497992711982     
 iter.  9 V(1) measure  0.5901985651037E+04
        9        delta  0.1349522128703E+00
 CRIT  0.163318139538124     
 iter. 10 V(1) measure  0.5902020320570E+04
       10        delta  0.3466953277075E-01
 CRIT  7.560949931746244E-002
 iter. 11 V(1) measure  0.5902036825988E+04
       11        delta  0.1650541789149E-01
 CRIT  1.971949536208201E-002
 iter. 12 V(1) measure  0.5902039833960E+04
       12        delta  0.3007971850820E-02
 *** convergence reached
 ----------------------------------------------
Hirshfeld fragment: 1 C
pol_frag_loc x             -4.09643
pol_frag_loc y             -4.03700
pol_frag_loc z              2.65233
charge_frag                 5.60108
pol_frag_non-loc x          3.23239
pol_frag_non-loc y        -10.57230
pol_frag_non-loc z         33.44934
 ----------------------------------------------
Hirshfeld fragment: 1 O
pol_frag_loc x              1.12284
pol_frag_loc y              0.41516
pol_frag_loc z              4.51018
charge_frag                 6.75609
pol_frag_non-loc x         12.01642
pol_frag_non-loc y         -7.82650
pol_frag_non-loc z         51.39486
 ----------------------------------------------
Hirshfeld fragment: 1 Ag
pol_frag_loc x             -1.35835
pol_frag_loc y              1.08277
pol_frag_loc z              8.48964
charge_frag                 4.96094
pol_frag_non-loc x         -1.41415
pol_frag_non-loc y         -3.66804
pol_frag_non-loc z          9.46608
 ----------------------------------------------
Hirshfeld fragment: 2 Ag
pol_frag_loc x             -1.43509
pol_frag_loc y             -0.07152
pol_frag_loc z              9.39401
charge_frag                -0.76065
pol_frag_non-loc x         -2.51446
pol_frag_non-loc y         -1.13064
pol_frag_non-loc z          1.27987
 ----------------------------------------------
Hirshfeld fragment: 3 Ag
pol_frag_loc x             -0.65035
pol_frag_loc y              5.71952
pol_frag_loc z             18.49347
charge_frag                 8.20506
pol_frag_non-loc x         -2.33891
pol_frag_non-loc y         36.13593
pol_frag_non-loc z          9.00426
 ----------------------------------------------
Hirshfeld fragment: 4 Ag
pol_frag_loc x              1.00357
pol_frag_loc y             -0.29049
pol_frag_loc z             10.45286
charge_frag                -0.52706
pol_frag_non-loc x          2.04277
pol_frag_non-loc y         -0.78343
pol_frag_non-loc z          0.88683
 ----------------------------------------------
Hirshfeld fragment: 5 Ag
pol_frag_loc x              0.33836
pol_frag_loc y             -7.29449
pol_frag_loc z             22.93499
charge_frag                -9.91292
pol_frag_non-loc x          2.82576
pol_frag_non-loc y        -43.65754
pol_frag_non-loc z         44.23718
 ----------------------------------------------
Hirshfeld fragment: 6 Ag
pol_frag_loc x              0.72615
pol_frag_loc y              0.86034
pol_frag_loc z             14.60498
charge_frag                -0.57796
pol_frag_non-loc x          1.77147
pol_frag_non-loc y          2.11364
pol_frag_non-loc z          0.97246
 ----------------------------------------------
Hirshfeld fragment: 7 Ag
pol_frag_loc x              0.32900
pol_frag_loc y              4.12259
pol_frag_loc z             28.30006
charge_frag               -12.50911
pol_frag_non-loc x          3.93599
pol_frag_non-loc y          8.66318
pol_frag_non-loc z         66.56437
 ----------------------------------------------
Hirshfeld fragment: 8 Ag
pol_frag_loc x             -1.50313
pol_frag_loc y              1.21988
pol_frag_loc z             14.28002
charge_frag                -1.23682
pol_frag_non-loc x         -3.02932
pol_frag_non-loc y          4.50948
pol_frag_non-loc z          2.16822
 ----------------------------------------------
pol_total x         11.00414
pol_total y        -14.48892
pol_total z        353.53371
 ------------------------------------------
 Convergence acceleration: T
 POLARIZABILITY                           
 Frequency  =   0.000000000     Hartrees
 Wavelength = infinite nm
 Wavenumber =   0.000000000     cm^{-1}
 Energy     =   0.000000000     eV
 ------------------------------------------
 Polarizability tensor:
                X                   Y                   Z
            290.80060            -1.61471            11.01848
             -1.61155           369.60495           -14.48926
             11.01221           -14.48573           353.54071

 Isotropic        POLARIZABILITY   =      337.98     atomic units



 =======================================================================
 Electrostatic potential at the Nuclei due to electrons and other nuclei
 =======================================================================
  
         Atom                  Potential
         ----                  ---------
     1)   C                  14.64052572
     2)   O                  22.23994693
     3)   Ag                274.24093146
     4)   Ag                274.26427094
     5)   Ag                274.26165045
     6)   Ag                274.26379500
     7)   Ag                274.26490787
     8)   Ag                274.26059412
     9)   Ag                274.26527743
    10)   Ag                274.26041198
 Mulliken charges used for AMS results%charges...


    =====================
     CALCULATION RESULTS
    =====================

Energy (hartree)            -1.07556846


--------------
Atomic charges
--------------
  Index   Atom    Charge
      1      C    0.2784
      2      O   -0.2869
      3     Ag    0.1171
      4     Ag    0.0623
      5     Ag   -0.0737
      6     Ag    0.0601
      7     Ag   -0.0847
      8     Ag   -0.0692
      9     Ag    0.0654
     10     Ag   -0.0689


Dipole moment vector    (Debye):    -0.06131028   -0.33279129    0.36366254
              magnitude (Debye):     0.49674886


AMS application finished. Exiting.
NORMAL TERMINATION
     Total cpu time:      12.61
  Total system time:       1.19
 Total elapsed time:      19.57
